 VARIABLES = "X", "Y", "Z"
 ZONE F=FEPOINT, ET=QUADRILATERAL, N=         101 E=          84
 -0.34759281758582383      -0.78329297635092388        0.0000000000000000     
 -0.20295160672779225      -0.78637037489747852        0.0000000000000000     
   5.4947946923139155E-008 -0.79089452243200309        0.0000000000000000     
  0.20295167497358785      -0.78637037034455470        0.0000000000000000     
  0.34759283804594709      -0.78329296848234631        0.0000000000000000     
 -0.59288364736676835      -0.59288373957712781        0.0000000000000000     
 -0.42785725933101237      -0.64324532564912928        0.0000000000000000     
 -0.20222072915351413      -0.60376373464960309        0.0000000000000000     
   1.6435028512256327E-008 -0.59837046169765296        0.0000000000000000     
  0.20222075967876538      -0.60376372632926878        0.0000000000000000     
  0.42785730812812772      -0.64324528421313243        0.0000000000000000     
  0.59288374003943423      -0.59288364783635628        0.0000000000000000     
 -0.78329296849997532      -0.34759283186661766        0.0000000000000000     
 -0.64324528396697911      -0.42785730455738796        0.0000000000000000     
 -0.41232065827089787      -0.41232067955845331        0.0000000000000000     
 -0.20490164911158462      -0.40630401393304250        0.0000000000000000     
   4.4773307535501679E-009 -0.40222761350783631        0.0000000000000000     
  0.20490166086733294      -0.40630400751856582        0.0000000000000000     
  0.41232068071184746      -0.41232065948623270        0.0000000000000000     
  0.64324532596879247      -0.42785726308478694        0.0000000000000000     
  0.78329297641848861      -0.34759282395946478        0.0000000000000000     
 -0.78637037063800796      -0.20295164406525634        0.0000000000000000     
 -0.60376372652887900      -0.20222074952343558        0.0000000000000000     
 -0.40630400737072503      -0.20490165866616214        0.0000000000000000     
 -0.20255083223222420      -0.20255083516885730        0.0000000000000000     
   1.0785271882525918E-009 -0.20157123078571063        0.0000000000000000     
  0.20255083557540321      -0.20255083275559368        0.0000000000000000     
  0.40630401435787789      -0.20490165201927063        0.0000000000000000     
  0.60376373514299797      -0.20222074085109795        0.0000000000000000     
  0.78637037530216636      -0.20295163919729919        0.0000000000000000     
 -0.79089452438408681       -5.9162941252600992E-009   0.0000000000000000     
 -0.59837046286820472       -5.1859705753421560E-009   0.0000000000000000     
 -0.40222761343430741       -2.1732301005700180E-009   0.0000000000000000     
 -0.20157123047898781       -6.0805946409252958E-010   0.0000000000000000     
   2.0412105482237903E-010  -4.2677699154126254E-011   0.0000000000000000     
  0.20157123114629680        4.9390046977384971E-011   0.0000000000000000     
  0.40222761462921047       -5.9454502766982784E-010   0.0000000000000000     
  0.59837046412339656       -2.9024412271652720E-009   0.0000000000000000     
  0.79089452502954682       -4.0273953470174065E-009   0.0000000000000000     
 -0.78637038673290249       0.20295161030904943        0.0000000000000000     
 -0.60376373579834886       0.20222073163340448        0.0000000000000000     
 -0.40630401154024703       0.20490165131209098        0.0000000000000000     
 -0.20255083349592609       0.20255083348033986        0.0000000000000000     
  -2.3695914811389466E-011  0.20157123094759505        0.0000000000000000     
  0.20255083340939495       0.20255083376974459        0.0000000000000000     
  0.40630401116968895       0.20490165233483745        0.0000000000000000     
  0.60376373480508549       0.20222073400956767        0.0000000000000000     
  0.78637038471777509       0.20295161484228444        0.0000000000000000     
 -0.78329299922930262       0.34759277039738895        0.0000000000000000     
 -0.64324531385801464       0.42785725974921490        0.0000000000000000     
 -0.41232066655538252       0.41232066704397780        0.0000000000000000     
 -0.20490165187131451       0.40630401195326926        0.0000000000000000     
  -2.7408435502837872E-010  0.40222761479737956        0.0000000000000000     
  0.20490165128864027       0.40630401229025553        0.0000000000000000     
  0.41232066538220358       0.41232066856427069        0.0000000000000000     
  0.64324531040573973       0.42785726511825828        0.0000000000000000     
  0.78329299521539963       0.34759277855287996        0.0000000000000000     
 -0.59288368919615719       0.59288369319803447        0.0000000000000000     
 -0.42785725934949675       0.64324531522979556        0.0000000000000000     
 -0.20222073368225246       0.60376373638242287        0.0000000000000000     
  -1.2237056232610386E-009  0.59837046558915663        0.0000000000000000     
  0.20222073195615112       0.60376373653948479        0.0000000000000000     
  0.42785725799785396       0.64324531681705999        0.0000000000000000     
  0.59288368487438747       0.59288369792025863        0.0000000000000000     
 -0.34759277308961561       0.78329299851659162        0.0000000000000000     
 -0.20295161516768581       0.78637038677887139        0.0000000000000000     
  -4.7792949161891222E-009  0.79089452717247144        0.0000000000000000     
  0.20295161069841061       0.78637038626933786        0.0000000000000000     
  0.34759277459215426       0.78329299748114667        0.0000000000000000     
 -0.56584258178911429      -0.82451329439508092        0.0000000000000000     
 -0.42776674112450841      -0.90388916089735127        0.0000000000000000     
 -0.23984734947877720      -0.97081061435689164        0.0000000000000000     
   2.5670801110881701E-007 -0.99999999999996703        0.0000000000000000     
  0.23984734947877770      -0.97081061435689153        0.0000000000000000     
  0.42776674112450891      -0.90388916089735105        0.0000000000000000     
  0.56584258178911473      -0.82451329439508070        0.0000000000000000     
  0.70710696270650031      -0.70710659966654821        0.0000000000000000     
  0.82451329439508092      -0.56584258178911440        0.0000000000000000     
  0.90388916089735127      -0.42776674112450846        0.0000000000000000     
  0.97081061435689164      -0.23984734947877726        0.0000000000000000     
   1.0000000000000000        0.0000000000000000        0.0000000000000000     
  0.97081061435689153       0.23984734947877728        0.0000000000000000     
  0.90388925330612402       0.42776654586082064        0.0000000000000000     
  0.82451329439508092       0.56584258178911440        0.0000000000000000     
  0.70710675603818618       0.70710680633490808        0.0000000000000000     
  0.56584258178911451       0.82451329439508081        0.0000000000000000     
  0.42776653661091651       0.90388925768365092        0.0000000000000000     
  0.23984734947877751       0.97081061435689153        0.0000000000000000     
  -2.3861808689903184E-008  0.99999999999999967        0.0000000000000000     
 -0.23984734947877698       0.97081061435689164        0.0000000000000000     
 -0.42776652470376575       0.90388926331872232        0.0000000000000000     
 -0.56584258178911417       0.82451329439508114        0.0000000000000000     
 -0.70710677258920940       0.70710678978388553        0.0000000000000000     
 -0.82451329439508070       0.56584258178911462        0.0000000000000000     
 -0.90388926769624900       0.42776651545386146        0.0000000000000000     
 -0.97081061435689153       0.23984734947877756        0.0000000000000000     
  -1.0000000000000000       -4.5511848700121884E-010   0.0000000000000000     
 -0.97081061435689142      -0.23984734947877775        0.0000000000000000     
 -0.90388916089735083      -0.42776674112450935        0.0000000000000000     
 -0.82451329439508092      -0.56584258178911440        0.0000000000000000     
 -0.70710659966654843      -0.70710696270649998        0.0000000000000000     
           1           2           8           7
           2           3           9           8
           3           4          10           9
           4           5          11          10
           6           7          15          14
           7           8          16          15
           8           9          17          16
           9          10          18          17
          10          11          19          18
          11          12          20          19
          13          14          23          22
          14          15          24          23
          15          16          25          24
          16          17          26          25
          17          18          27          26
          18          19          28          27
          19          20          29          28
          20          21          30          29
          22          23          32          31
          23          24          33          32
          24          25          34          33
          25          26          35          34
          26          27          36          35
          27          28          37          36
          28          29          38          37
          29          30          39          38
          31          32          41          40
          32          33          42          41
          33          34          43          42
          34          35          44          43
          35          36          45          44
          36          37          46          45
          37          38          47          46
          38          39          48          47
          40          41          50          49
          41          42          51          50
          42          43          52          51
          43          44          53          52
          44          45          54          53
          45          46          55          54
          46          47          56          55
          47          48          57          56
          50          51          59          58
          51          52          60          59
          52          53          61          60
          53          54          62          61
          54          55          63          62
          55          56          64          63
          59          60          66          65
          60          61          67          66
          61          62          68          67
          62          63          69          68
           7          70          71           1
           1          71          72           2
           2          72          73           3
           3          73          74           4
           4          74          75           5
           5          75          76          11
          11          76          77          12
          12          77          78          20
          20          78          79          21
          21          79          80          30
          30          80          81          39
          39          81          82          48
          48          82          83          57
          57          83          84          56
          56          84          85          64
          64          85          86          63
          63          86          87          69
          69          87          88          68
          68          88          89          67
          67          89          90          66
          66          90          91          65
          65          91          92          59
          59          92          93          58
          58          93          94          50
          50          94          95          49
          49          95          96          40
          40          96          97          31
          31          97          98          22
          22          98          99          13
          13          99         100          14
          14         100         101           6
           6         101          70           7
