 VARIABLES = "X", "Y", "Z"
 ZONE F=FEPOINT, ET=QUADRILATERAL, N=         576 E=         529
 -0.33105626566451340      -0.89903267232663153        0.0000000000000000     
 -0.27896186784580912      -0.90093873727244289        0.0000000000000000     
 -0.20431200001482405      -0.90770344469483411        0.0000000000000000     
 -0.12392545834110114      -0.91415256234836939        0.0000000000000000     
  -4.1494132394291901E-002 -0.91772935843744641        0.0000000000000000     
   4.1498297917460340E-002 -0.91772757025011953        0.0000000000000000     
  0.12396883219687807      -0.91413155745304220        0.0000000000000000     
  0.20463099965469247      -0.90754860789342895        0.0000000000000000     
  0.28056260331387395      -0.90016269763528411        0.0000000000000000     
  0.33623326851778246      -0.89658390960913636        0.0000000000000000     
 -0.49578620464733109      -0.81931588463239913        0.0000000000000000     
 -0.44540623783047345      -0.82773109113953369        0.0000000000000000     
 -0.36434771284005124      -0.84874896951625767        0.0000000000000000     
 -0.27930564811731684      -0.83626142267643078        0.0000000000000000     
 -0.20108755917363072      -0.83595176595608978        0.0000000000000000     
 -0.12121379727223064      -0.83761885275359294        0.0000000000000000     
  -4.0480239861020999E-002 -0.83878566077477190        0.0000000000000000     
   4.0486101874483947E-002 -0.83878314564116740        0.0000000000000000     
  0.12127309084650507      -0.83759000128896577        0.0000000000000000     
  0.20151436831634276      -0.83574262251398490        0.0000000000000000     
  0.28147441843618864      -0.83518684769637186        0.0000000000000000     
  0.37362680124780245      -0.84406977710546338        0.0000000000000000     
  0.45973100530527189      -0.81968810809423143        0.0000000000000000     
  0.51115033556216816      -0.80969142145692719        0.0000000000000000     
 -0.58437499258759362      -0.74961954610453485        0.0000000000000000     
 -0.52415396431066075      -0.76759246934422365        0.0000000000000000     
 -0.44103497332269853      -0.75957354218284712        0.0000000000000000     
 -0.36191300596587667      -0.76104076556650246        0.0000000000000000     
 -0.28093278667147337      -0.76058873439755614        0.0000000000000000     
 -0.20040267597506503      -0.75943108773974810        0.0000000000000000     
 -0.12029192719003530      -0.75943870359561172        0.0000000000000000     
  -4.0109830238278854E-002 -0.75963947209842608        0.0000000000000000     
   4.0114583608094806E-002 -0.75963743867560518        0.0000000000000000     
  0.12033681521491163      -0.75941671194044569        0.0000000000000000     
  0.20070074247249811      -0.75928308955468082        0.0000000000000000     
  0.28226524511217715      -0.75990988472431242        0.0000000000000000     
  0.36529304586192030      -0.75919637343841473        0.0000000000000000     
  0.44719960383807372      -0.75576041059495358        0.0000000000000000     
  0.53654535333944919      -0.75875549824956756        0.0000000000000000     
  0.59830648751877202      -0.73835482905402849        0.0000000000000000     
 -0.67013938568889753      -0.67013947742575042        0.0000000000000000     
 -0.60995427129783786      -0.69222774829766898        0.0000000000000000     
 -0.52217295818914378      -0.68338886928232334        0.0000000000000000     
 -0.44151584651147391      -0.68174675462252277        0.0000000000000000     
 -0.36088120088593045      -0.68076221955039229        0.0000000000000000     
 -0.28050024202382118      -0.68042193615109681        0.0000000000000000     
 -0.20020702937002458      -0.68009794485599528        0.0000000000000000     
 -0.12007445229405544      -0.67994998674559581        0.0000000000000000     
  -4.0020238545571359E-002 -0.67993902912253112        0.0000000000000000     
   4.0022764201394549E-002 -0.67993795746360230        0.0000000000000000     
  0.12009539855235339      -0.67993963210729003        0.0000000000000000     
  0.20032458915246532      -0.68003842586559360        0.0000000000000000     
  0.28090403341975179      -0.68020559775535472        0.0000000000000000     
  0.36189971136432320      -0.68015080123187022        0.0000000000000000     
  0.44392687391106678      -0.68006142524654067        0.0000000000000000     
  0.52726209271542313      -0.67928938656309945        0.0000000000000000     
  0.62116729057445097      -0.68198200391148600        0.0000000000000000     
  0.68268281912082340      -0.65722190731677410        0.0000000000000000     
 -0.74961953827580674      -0.58437500041632195        0.0000000000000000     
 -0.69222770687228508      -0.60995431272322198        0.0000000000000000     
 -0.60392540035011288      -0.60392542042223352        0.0000000000000000     
 -0.52227793030555048      -0.60260095524045065        0.0000000000000000     
 -0.44090373369965519      -0.60104411463100293        0.0000000000000000     
 -0.36039408089570646      -0.60041695447555543        0.0000000000000000     
 -0.28017170271993663      -0.60016767962091944        0.0000000000000000     
 -0.20006873414545470      -0.60006100749268598        0.0000000000000000     
 -0.12002145583747841      -0.60001097782956792        0.0000000000000000     
  -4.0004191283507219E-002 -0.59999609422642741        0.0000000000000000     
   4.0005067259885466E-002 -0.59999572892635411        0.0000000000000000     
  0.12002734972812361      -0.60000802311996693        0.0000000000000000     
  0.20009501039504016      -0.60004718795278056        0.0000000000000000     
  0.28025756367066107      -0.60011762025160331        0.0000000000000000     
  0.36065102487786288      -0.60024188350307339        0.0000000000000000     
  0.44164449593046445      -0.60045413939437597        0.0000000000000000     
  0.52431634167895003      -0.60074323429541010        0.0000000000000000     
  0.60843660031964852      -0.59927570657432572        0.0000000000000000     
  0.70208686513264940      -0.59848101176570245        0.0000000000000000     
  0.76038282790806588      -0.57022391315758447        0.0000000000000000     
 -0.81931588409563916      -0.49578620518410488        0.0000000000000000     
 -0.76759246523709357      -0.52415396841780537        0.0000000000000000     
 -0.68338886080143424      -0.52217296667004132        0.0000000000000000     
 -0.60260094865445923      -0.52227793689154467        0.0000000000000000     
 -0.52111767452645386      -0.52111767701540079        0.0000000000000000     
 -0.44043015178009370      -0.52045948386338647        0.0000000000000000     
 -0.36014135553015159      -0.52015174409717990        0.0000000000000000     
 -0.28004648864160631      -0.52004827552302302        0.0000000000000000     
 -0.20001560361962689      -0.52001554205558820        0.0000000000000000     
 -0.12000476345342814      -0.52000430810538001        0.0000000000000000     
  -4.0000920093335481E-002 -0.52000065103313009        0.0000000000000000     
   4.0001108440593305E-002 -0.52000057497577234        0.0000000000000000     
  0.12000572889463079      -0.52000380966039150        0.0000000000000000     
  0.20001954047974435      -0.52001330705118454        0.0000000000000000     
  0.28006113948290906      -0.52003854314235187        0.0000000000000000     
  0.36019617914421892      -0.52010864988985317        0.0000000000000000     
  0.44063089420175233      -0.52027726888157277        0.0000000000000000     
  0.52175651610301577      -0.52045880126166244        0.0000000000000000     
  0.60439430932512928      -0.52018175784875798        0.0000000000000000     
  0.68734081445802098      -0.51692621643264947        0.0000000000000000     
  0.77614341969395417      -0.51129098853809674        0.0000000000000000     
  0.82897464911960794      -0.47918860749811748        0.0000000000000000     
 -0.82773109081035834      -0.44540623816005165        0.0000000000000000     
 -0.75957354116195441      -0.44103497434397471        0.0000000000000000     
 -0.68174675306065091      -0.44151584807352051        0.0000000000000000     
 -0.60104411333012753      -0.44090373500057989        0.0000000000000000     
 -0.52045948325104396      -0.44043015239244443        0.0000000000000000     
 -0.44015118832530464      -0.44015118849603174        0.0000000000000000     
 -0.36004243689581628      -0.44004401786273095        0.0000000000000000     
 -0.28001069809528667      -0.44001115805762714        0.0000000000000000     
 -0.20000275023480291      -0.44000282598978319        0.0000000000000000     
 -0.12000073498447202      -0.44000073938826673        0.0000000000000000     
  -4.0000144661508467E-002 -0.44000018907685085        0.0000000000000000     
   4.0000168231027484E-002 -0.44000017998579910        0.0000000000000000     
  0.12000083786731228      -0.44000068256180280        0.0000000000000000     
  0.20000321491550110      -0.44000252436301729        0.0000000000000000     
  0.28001289123672174      -0.44000945507876821        0.0000000000000000     
  0.36005298464409008      -0.44003448101272563        0.0000000000000000     
  0.44019701733279920      -0.44010389749819195        0.0000000000000000     
  0.52063562174339539      -0.44022294766869058        0.0000000000000000     
  0.60161556578892772      -0.44013069748490335        0.0000000000000000     
  0.68339718619091971      -0.43893888817000942        0.0000000000000000     
  0.76338338794462712      -0.43423513770829275        0.0000000000000000     
  0.83561033807406926      -0.43018684908330485        0.0000000000000000     
 -0.89903267232350648      -0.33105626567573559        0.0000000000000000     
 -0.84874896945380396      -0.36434771291138840        0.0000000000000000     
 -0.76104076541106991      -0.36191300612720179        0.0000000000000000     
 -0.68076221933937420      -0.36088120109917243        0.0000000000000000     
 -0.60041695429699471      -0.36039408107476628        0.0000000000000000     
 -0.52015174400217956      -0.36014135562522143        0.0000000000000000     
 -0.44004401783123925      -0.36004243692731697        0.0000000000000000     
 -0.36001050162613141      -0.36001050163269349        0.0000000000000000     
 -0.28000219514440611      -0.36000224467459568        0.0000000000000000     
 -0.20000042749604707      -0.36000043937298076        0.0000000000000000     
 -0.12000008759927375      -0.36000009037277214        0.0000000000000000     
  -4.0000015356416375E-002 -0.36000002309796880        0.0000000000000000     
   4.0000017189436424E-002 -0.36000002237801099        0.0000000000000000     
  0.12000009611907146      -0.36000008498525510        0.0000000000000000     
  0.20000047711575714      -0.36000040122532473        0.0000000000000000     
  0.28000250372422975      -0.36000196648439570        0.0000000000000000     
  0.36001228075164454      -0.36000866517178493        0.0000000000000000     
  0.44005324294706061      -0.36003151875967632        0.0000000000000000     
  0.52019365841805565      -0.36008341324559989        0.0000000000000000     
  0.60059102821138877      -0.36010852280994732        0.0000000000000000     
  0.68139922536639297      -0.35964996862456533        0.0000000000000000     
  0.76309735581612059      -0.35738475461551877        0.0000000000000000     
  0.85449774379217525      -0.35031494010027825        0.0000000000000000     
  0.90567889535170465      -0.31168946535843672        0.0000000000000000     
 -0.90093873727542395      -0.27896186794002426        0.0000000000000000     
 -0.83626142267494474      -0.27930564822836867        0.0000000000000000     
 -0.76058873438655328      -0.28093278674468058        0.0000000000000000     
 -0.68042193613386803      -0.28050024206239044        0.0000000000000000     
 -0.60016767960526696      -0.28017170274106340        0.0000000000000000     
 -0.52004827551377619      -0.28004648865234577        0.0000000000000000     
 -0.44001115805404561      -0.28001069809927898        0.0000000000000000     
 -0.36000224467370540      -0.28000219514538560        0.0000000000000000     
 -0.28000039506036495      -0.28000039506051522        0.0000000000000000     
 -0.20000006278099158      -0.28000006369805330        0.0000000000000000     
 -0.12000000951503294      -0.28000000979029604        0.0000000000000000     
  -4.0000001296657837E-002 -0.28000000192539876        0.0000000000000000     
   4.0000001402236120E-002 -0.28000000187586538        0.0000000000000000     
  0.12000001017158414      -0.28000000929147928        0.0000000000000000     
  0.20000006800397951      -0.28000005899662328        0.0000000000000000     
  0.28000043429228272      -0.28000035456159333        0.0000000000000000     
  0.36000251384358406      -0.28000187519750319        0.0000000000000000     
  0.44001282022020621      -0.28000835373819039        0.0000000000000000     
  0.52005810413136344      -0.28002954233576427        0.0000000000000000     
  0.60022214747422353      -0.28005764270787958        0.0000000000000000     
  0.68068785607006987      -0.27984810640595209        0.0000000000000000     
  0.76160586694781485      -0.27808318722392450        0.0000000000000000     
  0.83887132887598537      -0.27083277027667929        0.0000000000000000     
  0.90654738451947858      -0.25898378540604305        0.0000000000000000     
 -0.90770344482741983      -0.20431200097998312        0.0000000000000000     
 -0.83595176614253885      -0.20108756022802093        0.0000000000000000     
 -0.75943108790164671      -0.20040267659442557        0.0000000000000000     
 -0.68009794496071685      -0.20020702964830259        0.0000000000000000     
 -0.60006100754443026      -0.20006873426235203        0.0000000000000000     
 -0.52001554207450906      -0.20001560366103610        0.0000000000000000     
 -0.44000282599467738      -0.20000275024572300        0.0000000000000000     
 -0.36000043937381054      -0.20000042749799610        0.0000000000000000     
 -0.28000006369813180      -0.20000006278120050        0.0000000000000000     
 -0.20000000845103097      -0.20000000845103769        0.0000000000000000     
 -0.12000000103403487      -0.20000000104927765        0.0000000000000000     
  -4.0000000106494821E-002 -0.20000000014284580        0.0000000000000000     
   4.0000000112188655E-002 -0.20000000013931316        0.0000000000000000     
  0.12000000108656417      -0.20000000100209259        0.0000000000000000     
  0.20000000895894796      -0.20000000792681527        0.0000000000000000     
  0.28000006824667134      -0.20000005736506662        0.0000000000000000     
  0.36000047670516921      -0.20000037405287407        0.0000000000000000     
  0.44000313522723428      -0.20000219432225425        0.0000000000000000     
  0.52001808478594103      -0.20000990799941049        0.0000000000000000     
  0.60007973897831501      -0.20001832218244939        0.0000000000000000     
  0.68020582845561806      -0.19986253090326686        0.0000000000000000     
  0.75988874297998077      -0.19866109670068585        0.0000000000000000     
  0.83748194126486664      -0.19435964655843635        0.0000000000000000     
  0.91172582187540252      -0.18464905469765067        0.0000000000000000     
 -0.91415256685635160      -0.12392547200980633        0.0000000000000000     
 -0.83761885932608804      -0.12121381408127338        0.0000000000000000     
 -0.75943870944363490      -0.12029194012897360        0.0000000000000000     
 -0.67994999043948556      -0.12007446004632404        0.0000000000000000     
 -0.60001097951117865      -0.12002145930887849        0.0000000000000000     
 -0.52000430864492886      -0.12000476456040947        0.0000000000000000     
 -0.44000073950381297      -0.12000073522052010        0.0000000000000000     
 -0.36000009038775987      -0.12000008762970807        0.0000000000000000     
 -0.28000000979131917      -0.12000000951707948        0.0000000000000000     
 -0.20000000104931812      -0.12000000103411243        0.0000000000000000     
 -0.12000000010634425      -0.12000000010634511        0.0000000000000000     
  -4.0000000009184633E-002 -0.12000000001116064        0.0000000000000000     
   4.0000000009524452E-002 -0.12000000001089338        0.0000000000000000     
  0.12000000011027627      -0.12000000010229139        0.0000000000000000     
  0.20000000109498367      -0.12000000097979407        0.0000000000000000     
  0.28000001028112231      -0.12000000881105241        0.0000000000000000     
  0.36000009600227217      -0.12000007729748993        0.0000000000000000     
  0.44000080730510921      -0.12000057895250472        0.0000000000000000     
  0.52000506025388005      -0.12000269109907066        0.0000000000000000     
  0.60001760035275331      -0.11999987168640577        0.0000000000000000     
  0.67999471196491879      -0.11990366830827735        0.0000000000000000     
  0.75967081684495319      -0.11928235122510324        0.0000000000000000     
  0.83849114481556852      -0.11688405378795533        0.0000000000000000     
  0.91643795934190131      -0.10976220878686153        0.0000000000000000     
 -0.91772947224666390       -4.1494392739301861E-002   0.0000000000000000     
 -0.83878582437644933       -4.0480584805247806E-002   0.0000000000000000     
 -0.75963961231606003       -4.0110120655075306E-002   0.0000000000000000     
 -0.67993911106559290       -4.0020407108879476E-002   0.0000000000000000     
 -0.59999612721453455       -4.0004258825021136E-002   0.0000000000000000     
 -0.52000065984463029       -4.0000938041747758E-002   0.0000000000000000     
 -0.44000019052510730       -4.0000147587184703E-002   0.0000000000000000     
 -0.36000002323137942       -4.0000015620576736E-002   0.0000000000000000     
 -0.28000000193304070       -4.0000001310940614E-002   0.0000000000000000     
 -0.20000000014320596       -4.0000000107076661E-002   0.0000000000000000     
 -0.12000000001117858       -4.0000000009208239E-002   0.0000000000000000     
  -4.0000000000797273E-002  -4.0000000000797391E-002   0.0000000000000000     
   4.0000000000816521E-002  -4.0000000000779620E-002   0.0000000000000000     
  0.12000000001145411       -4.0000000008881591E-002   0.0000000000000000     
  0.20000000014701971       -4.0000000101594234E-002   0.0000000000000000     
  0.28000000199310005       -4.0000001200988310E-002   0.0000000000000000     
  0.36000002429392197       -4.0000013280698812E-002   0.0000000000000000     
  0.44000020830005443       -4.0000104486695123E-002   0.0000000000000000     
  0.52000090097712737       -4.0000325727418809E-002   0.0000000000000000     
  0.59999869395242711       -3.9997705219374013E-002   0.0000000000000000     
  0.67995966628817595       -3.9969722573480450E-002   0.0000000000000000     
  0.75975338265822667       -3.9850449887317431E-002   0.0000000000000000     
  0.83919814881559329       -3.9684138173960659E-002   0.0000000000000000     
  0.91863340087331469       -4.0542574477965075E-002   0.0000000000000000     
 -0.91772946980863501        4.1494344191589164E-002   0.0000000000000000     
 -0.83878582363857435        4.0480574174842118E-002   0.0000000000000000     
 -0.75963961214903664        4.0110118768792412E-002   0.0000000000000000     
 -0.67993911103522542        4.0020406884659694E-002   0.0000000000000000     
 -0.59999612720987849        4.0004258811055779E-002   0.0000000000000000     
 -0.52000065984403265        4.0000938041955938E-002   0.0000000000000000     
 -0.44000019052505479        4.0000147587297259E-002   0.0000000000000000     
 -0.36000002323137659        4.0000015620585659E-002   0.0000000000000000     
 -0.28000000193304059        4.0000001310940850E-002   0.0000000000000000     
 -0.20000000014320596        4.0000000107076550E-002   0.0000000000000000     
 -0.12000000001117865        4.0000000009208184E-002   0.0000000000000000     
  -4.0000000000798369E-002   4.0000000000798362E-002   0.0000000000000000     
   4.0000000000799306E-002   4.0000000000799486E-002   0.0000000000000000     
  0.12000000001119615        4.0000000009233254E-002   0.0000000000000000     
  0.20000000014358640        4.0000000107746715E-002   0.0000000000000000     
  0.28000000194294428        4.0000001329404865E-002   0.0000000000000000     
  0.36000002348396987        4.0000015998289763E-002   0.0000000000000000     
  0.44000019585473477        4.0000151335704191E-002   0.0000000000000000     
  0.52000074900053650        4.0000908189535639E-002   0.0000000000000000     
  0.59999722239734932        4.0002595749654597E-002   0.0000000000000000     
  0.67994815438197620        3.9992687919534482E-002   0.0000000000000000     
  0.75968782113914646        3.9846139510211695E-002   0.0000000000000000     
  0.83894756358367784        3.8819757424797860E-002   0.0000000000000000     
  0.91805749977538087        3.3432246302910758E-002   0.0000000000000000     
 -0.91415256076367435       0.12392548997150500        0.0000000000000000     
 -0.83761885735374952       0.12121381563519895        0.0000000000000000     
 -0.75943870888119658       0.12029194051183761        0.0000000000000000     
 -0.67994999030980807       0.12007446019800770        0.0000000000000000     
 -0.60001097948781823       0.12002145934857716        0.0000000000000000     
 -0.52000430864207758       0.12000476456620071        0.0000000000000000     
 -0.44000073950359364       0.12000073522101259        0.0000000000000000     
 -0.36000009038775094       0.12000008762973170        0.0000000000000000     
 -0.28000000979131939       0.12000000951707966        0.0000000000000000     
 -0.20000000104931845       0.12000000103411235        0.0000000000000000     
 -0.12000000010634643       0.12000000010634629        0.0000000000000000     
  -4.0000000009208281E-002  0.12000000001117851        0.0000000000000000     
   4.0000000009208225E-002  0.12000000001117858        0.0000000000000000     
  0.12000000010634772       0.12000000010634863        0.0000000000000000     
  0.20000000104937296       0.12000000103418280        0.0000000000000000     
  0.28000000979348161       0.12000000951690393        0.0000000000000000     
  0.36000009045980241       0.12000008746834587        0.0000000000000000     
  0.44000074140285850       0.12000072651304045        0.0000000000000000     
  0.52000434434647036       0.12000451427890310        0.0000000000000000     
  0.60001142096980031       0.12001704540889371        0.0000000000000000     
  0.67995349941782834       0.12002511942841675        0.0000000000000000     
  0.75945657678436118       0.11993626799305615        0.0000000000000000     
  0.83767765662251892       0.11952626732602649        0.0000000000000000     
  0.91428757663900051       0.11872585192052725        0.0000000000000000     
 -0.90770343811208898       0.20431203320050759        0.0000000000000000     
 -0.83595176219206246       0.20108757284410955        0.0000000000000000     
 -0.75943108636761170       0.20040268062831326        0.0000000000000000     
 -0.68009794454253647       0.20020703066603215        0.0000000000000000     
 -0.60006100747361257       0.20006873443094950        0.0000000000000000     
 -0.52001554206702028       0.20001560367911905        0.0000000000000000     
 -0.44000282599427182       0.20000275024687522        0.0000000000000000     
 -0.36000043937382881       0.20000042749801161        0.0000000000000000     
 -0.28000006369814023       0.20000006278119417        0.0000000000000000     
 -0.20000000845104157       0.20000000845104135        0.0000000000000000     
 -0.12000000103411250       0.20000000104931831        0.0000000000000000     
  -4.0000000107076661E-002  0.20000000014320582        0.0000000000000000     
   4.0000000107076550E-002  0.20000000014320582        0.0000000000000000     
  0.12000000103411250       0.20000000104931845        0.0000000000000000     
  0.20000000845105223       0.20000000845101779        0.0000000000000000     
  0.28000006369872921       0.20000006277767277        0.0000000000000000     
  0.36000043939859927       0.20000042726138562        0.0000000000000000     
  0.44000282670947088       0.20000274094564857        0.0000000000000000     
  0.52001555533952992       0.20001537727842300        0.0000000000000000     
  0.60006116457067415       0.20006527555582318        0.0000000000000000     
  0.68009913620044615       0.20017383836207359        0.0000000000000000     
  0.75943689301226225       0.20020492731020145        0.0000000000000000     
  0.83596947228676000       0.20039715890804968        0.0000000000000000     
  0.90772549468267483       0.20340769262368222        0.0000000000000000     
 -0.90093872063036551       0.27896191301341200        0.0000000000000000     
 -0.83626141233591311       0.27930567565313169        0.0000000000000000     
 -0.76058873012170258       0.28093279751791572        0.0000000000000000     
 -0.68042193518114624       0.28050024442026811        0.0000000000000000     
 -0.60016767946851335       0.28017170308403727        0.0000000000000000     
 -0.52004827550428290       0.28004648868210591        0.0000000000000000     
 -0.44001115805503943       0.28001069809959972        0.0000000000000000     
 -0.36000224467414954       0.28000219514499869        0.0000000000000000     
 -0.28000039506045155       0.28000039506044466        0.0000000000000000     
 -0.20000006278119495       0.28000006369813935        0.0000000000000000     
 -0.12000000951707979       0.28000000979131928        0.0000000000000000     
  -4.0000001310940878E-002  0.28000000193304042        0.0000000000000000     
   4.0000001310940746E-002  0.28000000193304042        0.0000000000000000     
  0.12000000951707954       0.28000000979131928        0.0000000000000000     
  0.20000006278119617       0.28000006369811220        0.0000000000000000     
  0.28000039506063285       0.28000039505761681        0.0000000000000000     
  0.36000224468281450       0.28000219498177775        0.0000000000000000     
  0.44001115829961540       0.28001069240747345        0.0000000000000000     
  0.52004827980446167       0.28004636661163729        0.0000000000000000     
  0.60016772726877499       0.28017009358534323        0.0000000000000000     
  0.68042227070139294       0.28048739165479086        0.0000000000000000     
  0.76059016737394070       0.28087339348774287        0.0000000000000000     
  0.83626462599486628       0.27916830474642135        0.0000000000000000     
  0.90094196422746442       0.27882132376163377        0.0000000000000000     
 -0.89903263483931128       0.33105635958369228        0.0000000000000000     
 -0.84874894120672362       0.36434778129067624        0.0000000000000000     
 -0.76104075884521083       0.36191302210349496        0.0000000000000000     
 -0.68076221809873705       0.36088120423847964        0.0000000000000000     
 -0.60041695419652241       0.36039408144539298        0.0000000000000000     
 -0.52015174403326481       0.36014135562005745        0.0000000000000000     
 -0.44004401784664232       0.36004243691361021        0.0000000000000000     
 -0.36001050162963083       0.36001050162932746        0.0000000000000000     
 -0.28000219514503821       0.36000224467410791        0.0000000000000000     
 -0.20000042749801344       0.36000043937382592        0.0000000000000000     
 -0.12000008762973144       0.36000009038775105        0.0000000000000000     
  -4.0000015620584563E-002  0.36000002323137587        0.0000000000000000     
   4.0000015620583917E-002  0.36000002323137598        0.0000000000000000     
  0.12000008762972958       0.36000009038775183        0.0000000000000000     
  0.20000042749800379       0.36000043937381748        0.0000000000000000     
  0.28000219514501251       0.36000224467268060        0.0000000000000000     
  0.36001050163176940       0.36001050155234848        0.0000000000000000     
  0.44004401791553882       0.36004243454349255        0.0000000000000000     
  0.52015174518211682       0.36014131212197958        0.0000000000000000     
  0.60041696567316516       0.36039360914982638        0.0000000000000000     
  0.68076228628368596       0.36087826550276692        0.0000000000000000     
  0.76104098245705765       0.36190319368061896        0.0000000000000000     
  0.84874932478100940       0.36433087426129090        0.0000000000000000     
  0.89903303110708488       0.33103882410120766        0.0000000000000000     
 -0.82773107740190754       0.44540626952579743        0.0000000000000000     
 -0.75957353667060590       0.44103498569234295        0.0000000000000000     
 -0.68174675276005781       0.44151584990612930        0.0000000000000000     
 -0.60104411384341250       0.44090373471854871        0.0000000000000000     
 -0.52045948355655591       0.44043015211077757        0.0000000000000000     
 -0.44015118841607825       0.44015118840815926        0.0000000000000000     
 -0.36004243691497229       0.44004401784521030        0.0000000000000000     
 -0.28001069809967977       0.44001115805490765        0.0000000000000000     
 -0.20000275024684863       0.44000282599428386        0.0000000000000000     
 -0.12000073522101995       0.44000073950360130        0.0000000000000000     
  -4.0000147587304136E-002  0.44000019052504469        0.0000000000000000     
   4.0000147587294685E-002  0.44000019052504719        0.0000000000000000     
  0.12000073522099246       0.44000073950361290        0.0000000000000000     
  0.20000275024676051       0.44000282599432811        0.0000000000000000     
  0.28001069809924595       0.44001115805470492        0.0000000000000000     
  0.36004243691264115       0.44004401782176478        0.0000000000000000     