 VARIABLES = "X", "Y", "Z"
 ZONE F=FEPOINT, ET=QUADRILATERAL, N=        1095 E=         940
   4.0261470442727516       -95.960503801176145        0.0000000000000000     
   8.0167896064983424       -95.962248898295826        0.0000000000000000     
   11.919109023745559       -96.022293063748720        0.0000000000000000     
   15.386085691720263       -96.338888205747438        0.0000000000000000     
   20.267014648344503       -96.235755767181885        0.0000000000000000     
   24.183468787967165       -96.003598229809569        0.0000000000000000     
   28.186304629112037       -96.001708191802621        0.0000000000000000     
   32.193337349712252       -95.986183421417579        0.0000000000000000     
   36.206228585538362       -95.976432916315659        0.0000000000000000     
   40.196260002494519       -95.997105550052950        0.0000000000000000     
   44.185579465228891       -96.008231244550643        0.0000000000000000     
   48.181682013098246       -96.009622881314030        0.0000000000000000     
   52.175458562779085       -96.002813789416578        0.0000000000000000     
   56.166903751550429       -95.984428348894696        0.0000000000000000     
   60.178120132501583       -95.971940139881255        0.0000000000000000     
   64.187647056469189       -95.997388965101763        0.0000000000000000     
   68.184728559728413       -95.998534288418028        0.0000000000000000     
   72.181395962163450       -95.984162086685217        0.0000000000000000     
   76.168746087717096       -96.222636298086144        0.0000000000000000     
   81.545451358272985       -96.430444551746945        0.0000000000000000     
   85.070221751858980       -96.091461106864429        0.0000000000000000     
   88.904481305237724       -95.990440441102749        0.0000000000000000     
   92.669504277177083       -95.959945346938184        0.0000000000000000     
   96.343798814792294       -95.953627751694754        0.0000000000000000     
   3.9670923899677057       -91.931803420052773        0.0000000000000000     
   7.9943695124566663       -91.909178736856262        0.0000000000000000     
   12.040311666099361       -91.937337051713541        0.0000000000000000     
   16.653882865936243       -92.037487907974366        0.0000000000000000     
   19.779933740422333       -92.033152204199624        0.0000000000000000     
   24.033514822476576       -91.963728379451936        0.0000000000000000     
   28.058207256413507       -92.126992866841817        0.0000000000000000     
   31.977875961395991       -92.111042037023154        0.0000000000000000     
   36.235034137502439       -91.875051032513227        0.0000000000000000     
   40.093328392347196       -92.039602419288443        0.0000000000000000     
   44.025525494896563       -92.109943308814735        0.0000000000000000     
   47.998088814108876       -92.118261654667165        0.0000000000000000     
   51.960367910497204       -92.068216379686319        0.0000000000000000     
   55.883286618513260       -91.950027166895339        0.0000000000000000     
   60.195911668440850       -91.564688068027962        0.0000000000000000     
   64.177192568191870       -92.148872845326437        0.0000000000000000     
   68.098942536892551       -92.041989503616534        0.0000000000000000     
   72.020148729906396       -91.786818833564467        0.0000000000000000     
   76.554059507782256       -91.579714491481951        0.0000000000000000     
   79.975862640766607       -92.521383382852790        0.0000000000000000     
   84.283839434890183       -92.062011788374477        0.0000000000000000     
   88.263868030742685       -91.972873012120232        0.0000000000000000     
   92.188527098377577       -91.947980302695754        0.0000000000000000     
   96.092018177931919       -91.945764246927595        0.0000000000000000     
   3.6518300685392657       -87.623686344181664        0.0000000000000000     
   8.0441588264875410       -87.833859834386615        0.0000000000000000     
   12.036332687241314       -87.909323371420797        0.0000000000000000     
   15.865293598571673       -87.435762540132686        0.0000000000000000     
   20.327675034282517       -88.256221831772152        0.0000000000000000     
   23.222033756567541       -88.566235732623610        0.0000000000000000     
   76.385345491093744       -88.806481112141711        0.0000000000000000     
   79.759201222114342       -87.725004502574095        0.0000000000000000     
   83.914331354124087       -87.999787313887026        0.0000000000000000     
   87.943795289907428       -87.943473159536154        0.0000000000000000     
   91.997637486681370       -87.956212641265907        0.0000000000000000     
   96.003785987423768       -87.968461008055002        0.0000000000000000     
   4.4818167860677116       -84.326621876111290        0.0000000000000000     
   8.1045097261572572       -83.283968037051594        0.0000000000000000     
   12.421456189378663       -84.094935643594496        0.0000000000000000     
   14.839075159455462       -85.051502744421853        0.0000000000000000     
   80.826335343433257       -85.005819757612983        0.0000000000000000     
   83.362503213540322       -83.797244867306290        0.0000000000000000     
   87.837413885739380       -83.932751440698539        0.0000000000000000     
   91.945495843245553       -83.971465016341995        0.0000000000000000     
   95.985974184733493       -83.988411465352428        0.0000000000000000     
   4.0372606563576126       -80.009857829005313        0.0000000000000000     
   8.0523434288086992       -80.204548095269942        0.0000000000000000     
   11.520104026151401       -79.883421802378777        0.0000000000000000     
   84.035572671552401       -79.949576129355776        0.0000000000000000     
   87.847073801805820       -79.977277881580335        0.0000000000000000     
   91.939441847443135       -79.993258962386165        0.0000000000000000     
   95.984600113109607       -79.997936642695265        0.0000000000000000     
   4.0013766524000225       -76.003033067428660        0.0000000000000000     
   7.9626388360058922       -75.962148136324529        0.0000000000000000     
   81.151515129404132       -74.689087519071791        0.0000000000000000     
   83.502191781370698       -76.085344245781911        0.0000000000000000     
   87.864308898267950       -76.034507642093672        0.0000000000000000     
   91.947995864882714       -76.013469443438012        0.0000000000000000     
   95.986874628187380       -76.003351906568511        0.0000000000000000     
   3.9951475669087135       -71.999317737076254        0.0000000000000000     
   7.8477466436820391       -71.991886205979384        0.0000000000000000     
   80.724419371357399       -72.486631665083621        0.0000000000000000     
   84.010355982826169       -72.109703025500266        0.0000000000000000     
   87.909387432155555       -72.062329109545047        0.0000000000000000     
   91.963954537370697       -72.021140235223342        0.0000000000000000     
   95.990920324671251       -72.004972765725299        0.0000000000000000     
   3.9981746395326763       -67.995370440348836        0.0000000000000000     
   7.8978031968789066       -68.024403573612517        0.0000000000000000     
   76.363804719216901       -67.839543797976972        0.0000000000000000     
   79.347102393585388       -68.860681439054218        0.0000000000000000     
   83.892183652409614       -68.245077271805869        0.0000000000000000     
   87.950906865817842       -68.068169438318776        0.0000000000000000     
   91.979978437763904       -68.018236882840256        0.0000000000000000     
   95.995026436786603       -68.003856709704095        0.0000000000000000     
   4.0301844282747528       -63.986661946214085        0.0000000000000000     
   8.0181532163329319       -63.777650196552749        0.0000000000000000     
   11.374420935270374       -63.164773989205642        0.0000000000000000     
   69.030842168939643       -63.133668138221275        0.0000000000000000     
   71.380905634006737       -63.578354222912964        0.0000000000000000     
   75.186777950162664       -64.885908941598288        0.0000000000000000     
   79.734140009070799       -64.327484265677185        0.0000000000000000     
   83.868272539386354       -64.169418309758427        0.0000000000000000     
   87.961377084515433       -64.051201276774890        0.0000000000000000     
   91.989652338335517       -64.011803254203556        0.0000000000000000     
   95.997751155906954       -64.002164002592224        0.0000000000000000     
   4.4375668144510465       -59.657872778615975        0.0000000000000000     
   7.8838120346027845       -60.640833822549020        0.0000000000000000     
   11.136978704195711       -59.614123141380553        0.0000000000000000     
   61.284985437113335       -59.030287918715217        0.0000000000000000     
   63.720447296622972       -59.364781791190879        0.0000000000000000     
   67.600944669642104       -60.482918553973384        0.0000000000000000     
   71.799125175769319       -60.071811478451693        0.0000000000000000     
   75.744084478361074       -60.179857577613483        0.0000000000000000     
   79.841681866039949       -60.165189234058062        0.0000000000000000     
   83.936787903520610       -60.071433319868788        0.0000000000000000     
   87.978696897452551       -60.024485879152188        0.0000000000000000     
   91.994907190532132       -60.005787914441754        0.0000000000000000     
   95.999080742044058       -60.000979988710263        0.0000000000000000     
   3.6208407842638812       -56.361665577405503        0.0000000000000000     
   7.9011348690381125       -56.177090928018345        0.0000000000000000     
   11.513014257808100       -56.400090493509488        0.0000000000000000     
   53.281838741599515       -55.382395566054498        0.0000000000000000     
   55.774491534545717       -55.571841207314385        0.0000000000000000     
   59.742802491398699       -56.510206824986966        0.0000000000000000     
   63.930517292497214       -56.002008202056416        0.0000000000000000     
   67.857515553488327       -56.078236120040913        0.0000000000000000     
   71.887392628574872       -56.096631494696666        0.0000000000000000     
   75.920651706527423       -56.064051680998247        0.0000000000000000     
   79.948748226112642       -56.047478889425058        0.0000000000000000     
   83.976729470195622       -56.024280161328029        0.0000000000000000     
   87.992379434654524       -56.008185488523459        0.0000000000000000     
   91.998099306402935       -56.002035707789673        0.0000000000000000     
   95.999665884335499       -56.000351437504435        0.0000000000000000     
   3.9523750538275144       -52.042514568887391        0.0000000000000000     
   8.0629191713681685       -52.103040069215879        0.0000000000000000     
   12.714974011085578       -52.036460683357078        0.0000000000000000     
   15.598567826850896       -50.006759418059310        0.0000000000000000     
   36.565055065221188       -51.258538018450736        0.0000000000000000     
   39.600016194565100       -50.632217673519158        0.0000000000000000     
   43.619745192076714       -51.228754795620333        0.0000000000000000     
   47.426702818126216       -51.861984057258489        0.0000000000000000     
   51.680240501261252       -52.839571450317628        0.0000000000000000     
   55.940337348151864       -52.115817754457844        0.0000000000000000     
   59.891425685211772       -52.108066567767366        0.0000000000000000     
   63.923416443369234       -52.088076083295853        0.0000000000000000     
   67.947688965746238       -52.044758805427655        0.0000000000000000     
   71.961886919046123       -52.033830597937921        0.0000000000000000     
   75.976907063190438       -52.021494653603590        0.0000000000000000     
   79.987393218942827       -52.011647875850890        0.0000000000000000     
   83.994118456236933       -52.005560962761585        0.0000000000000000     
   87.997897713061349       -52.001930616504644        0.0000000000000000     
   91.999423894901454       -52.000443000498741        0.0000000000000000     
   95.999875427891482       -52.000061852724947        0.0000000000000000     
   3.9999875634611834       -48.019803755790285        0.0000000000000000     
   8.0822204559927542       -48.022128747739508        0.0000000000000000     
   12.086259293295489       -47.832698891604188        0.0000000000000000     
   15.728994707282933       -47.460825755032268        0.0000000000000000     
   19.135257823014051       -47.336793034972096        0.0000000000000000     
   22.372649118476971       -47.714749011508445        0.0000000000000000     
   27.739115276895184       -47.996074833333850        0.0000000000000000     
   31.797326538960327       -47.975353121179218        0.0000000000000000     
   35.988218470064005       -47.954058433518966        0.0000000000000000     
   40.404020210571439       -47.652199510656359        0.0000000000000000     
   43.839102146364390       -47.715879305388768        0.0000000000000000     
   47.795223939705181       -47.972197043935651        0.0000000000000000     
   51.843306225051499       -48.157449574919170        0.0000000000000000     
   55.914470954281938       -48.131205631097544        0.0000000000000000     
   59.950286507908089       -48.056630794198476        0.0000000000000000     
   63.967750078132774       -48.033150019984049        0.0000000000000000     
   67.982405018032097       -48.018054066017712        0.0000000000000000     
   71.990624325080887       -48.009193168077360        0.0000000000000000     
   75.994596389967043       -48.004706676576305        0.0000000000000000     
   79.996472318615488       -48.001672193934454        0.0000000000000000     
   83.997471777218379       -47.999885055601901        0.0000000000000000     
   87.998351477580130       -47.999261563003181        0.0000000000000000     
   91.999151327921709       -47.999393862523362        0.0000000000000000     
   95.999691187550937       -47.999732147425419        0.0000000000000000     
   3.9411456466467780       -43.995179192868633        0.0000000000000000     
   7.9839479010943490       -43.979554084115293        0.0000000000000000     
   12.005267865930641       -43.971745121464053        0.0000000000000000     
   15.922549915325050       -43.909509742232643        0.0000000000000000     
   19.753508082790372       -44.014251092085260        0.0000000000000000     
   23.822527849855838       -44.603819814188135        0.0000000000000000     
   27.058446439281845       -43.880432893371072        0.0000000000000000     
   31.849998709489064       -43.835293917676985        0.0000000000000000     
   36.263686609101910       -43.926653440595040        0.0000000000000000     
   39.343486044902306       -43.972880066365477        0.0000000000000000     
   43.868139513437725       -43.867247789759070        0.0000000000000000     
   47.914184000507909       -43.937508057214686        0.0000000000000000     
   51.930085158819814       -44.030222459449796        0.0000000000000000     
   55.941020408597666       -44.030165804467750        0.0000000000000000     
   59.965026171423212       -44.006252307968090        0.0000000000000000     
   63.988378822539346       -43.997359336267522        0.0000000000000000     
   68.001080671952465       -43.998614409519064        0.0000000000000000     
   72.002909958584510       -44.001750024188006        0.0000000000000000     
   75.998082480696254       -44.002697360353714        0.0000000000000000     
   79.992033931723952       -43.998922242460544        0.0000000000000000     
   83.989444174265017       -43.994123545243937        0.0000000000000000     
   87.991415978249748       -43.993162835876475        0.0000000000000000     
   91.995327037731670       -43.995663873686425        0.0000000000000000     
   95.998328748669820       -43.998360633866618        0.0000000000000000     
   3.6344984630572954       -39.660543751437004        0.0000000000000000     
   7.9918836065980763       -39.932772144370801        0.0000000000000000     
   11.992636133932841       -40.075813233243167        0.0000000000000000     
   15.938591985233371       -40.156051741847577        0.0000000000000000     
   20.211242009498761       -39.975577199042846        0.0000000000000000     
   23.728271891367619       -41.043435403995872        0.0000000000000000     
   29.191454476770623       -38.673028224647368        0.0000000000000000     
   31.643452673378164       -39.690130778347488        0.0000000000000000     
   36.367602362607947       -40.762132959400056        0.0000000000000000     
   40.108755029231311       -40.389562770124606        0.0000000000000000     
   43.855083367470769       -39.514813968126923        0.0000000000000000     
   48.078315924420778       -40.062366630464680        0.0000000000000000     
   51.937254827012907       -40.074460208037543        0.0000000000000000     
   55.874303186905983       -39.965374001365461        0.0000000000000000     
   59.924424621430141       -39.921224106940429        0.0000000000000000     
   63.995092313147197       -39.952699057332609        0.0000000000000000     
   68.025302303095614       -39.985861262158430        0.0000000000000000     
   72.022218488107399       -40.023075815850717        0.0000000000000000     
   75.994493974877187       -40.038040919742627        0.0000000000000000     
   79.963155208269001       -40.013580626281296        0.0000000000000000     
   83.950836472592457       -39.978791754266076        0.0000000000000000     
   87.962000410325729       -39.969618515854528        0.0000000000000000     
   91.980754384902738       -39.981728672565382        0.0000000000000000     
   95.993416196028122       -39.993640907638344        0.0000000000000000     
   4.4731190906601412       -36.347450153113101        0.0000000000000000     
   8.1188545646351873       -35.365289439858323        0.0000000000000000     
   12.061266014736383       -36.615797738387286        0.0000000000000000     
   15.700604694088414       -36.469596966306440        0.0000000000000000     
   19.286950454819301       -36.897918928551810        0.0000000000000000     
   23.712415236986942       -36.257893344296825        0.0000000000000000     
   28.223355625336090       -36.091402357408988        0.0000000000000000     
   32.072484075179418       -36.098443395572431        0.0000000000000000     
   35.820874396526960       -35.593939331393223        0.0000000000000000     
   45.444590120481628       -36.961048201929927        0.0000000000000000     
   48.310949405999828       -36.352031363899187        0.0000000000000000     
   51.866840003547615       -36.610090960459239        0.0000000000000000     
   55.478292585493961       -35.571783220926129        0.0000000000000000     
   59.868424913814309       -35.788344093450107        0.0000000000000000     
   63.992846365249264       -35.868601880136694        0.0000000000000000     
   68.078935448391846       -35.989879553645558        0.0000000000000000     
   72.074689386950539       -36.166360879687424        0.0000000000000000     
   75.983350889856212       -36.248698879668062        0.0000000000000000     
   79.868334421446534       -36.117550555532986        0.0000000000000000     
   83.829436540900844       -35.930955498478909        0.0000000000000000     
   87.883177197916041       -35.896189283688884        0.0000000000000000     
   91.946464050736878       -35.949823389311966        0.0000000000000000     
   95.980916071860804       -35.981878313857514        0.0000000000000000     
   4.0444660952808453       -32.007175009349602        0.0000000000000000     
   8.0870766158541461       -32.171305615773079        0.0000000000000000     
   11.742033937913732       -32.381366642004949        0.0000000000000000     
   28.315946217030255       -32.375132110071384        0.0000000000000000     
   31.981329808341098       -31.962123057431302        0.0000000000000000     
   36.470847244818302       -32.282962605999984        0.0000000000000000     
   52.553555287140526       -32.434534976146374        0.0000000000000000     
   56.160308912423837       -31.820920276446849        0.0000000000000000     
   59.677078727949393       -31.436387074802123        0.0000000000000000     
   63.959504830662510       -31.883302801458417        0.0000000000000000     
   68.179047450225440       -31.804858355470561        0.0000000000000000     
   72.231480115511090       -32.765440889311371        0.0000000000000000     
   75.983362539300018       -32.892484377394752        0.0000000000000000     
   79.634030935821329       -32.629262306448332        0.0000000000000000     
   83.468801586527306       -31.489887093848740        0.0000000000000000     
   87.803448302930931       -31.826695145681406        0.0000000000000000     
   91.878182708738976       -31.886798330754903        0.0000000000000000     
   95.964721927526455       -31.963620733491986        0.0000000000000000     
   4.0375716247699085       -27.994098374226589        0.0000000000000000     
   8.4591485930453274       -27.946023959625318        0.0000000000000000     
   31.556949110477419       -27.867095091988880        0.0000000000000000     
   36.084200770106996       -28.087310361792689        0.0000000000000000     
   39.832895133777754       -27.548515669533742        0.0000000000000000     
   55.972989558854714       -28.419547685583495        0.0000000000000000     
   60.401274145672808       -27.865491587117582        0.0000000000000000     
   64.051110920052011       -27.853494020570903        0.0000000000000000     
   66.793167488482652       -29.183716042544788        0.0000000000000000     
   84.615813756744544       -28.637465728217940        0.0000000000000000     
   87.365427503150883       -27.474688708216426        0.0000000000000000     
   91.871930863787910       -27.830459517605881        0.0000000000000000     
   95.964384544989230       -27.952455529186881        0.0000000000000000     
   4.0409242700530008       -24.005955857040117        0.0000000000000000     
   8.1611432027698321       -24.089645972955818        0.0000000000000000     
   31.844529497920643       -24.002850950652739        0.0000000000000000     
   36.005130150353857       -24.037420819448585        0.0000000000000000     
   40.484611284580645       -24.292205314391012        0.0000000000000000     
   51.784739469735577       -24.234041285959062        0.0000000000000000     
   56.181477881403382       -24.055244664576801        0.0000000000000000     
   59.178160326632124       -23.988827215973370        0.0000000000000000     
   62.851851306373774       -23.955206249094079        0.0000000000000000     
   88.274139286420137       -23.626095671080979        0.0000000000000000     
   91.999429107060436       -23.869488894402700        0.0000000000000000     
   95.986492486792059       -23.965299419284175        0.0000000000000000     
   4.0258094417206847       -20.005019393218017        0.0000000000000000     
   8.0632107138633060       -20.016363173602876        0.0000000000000000     
   31.923048328933159       -20.013726085973563        0.0000000000000000     
   35.983912525470387       -20.019335028507221        0.0000000000000000     
   40.126939690789371       -20.122008601676484        0.0000000000000000     
   43.839136171553463       -19.727724510673454        0.0000000000000000     
   47.753747608442204       -20.147397493875886        0.0000000000000000     
   51.956906249835342       -20.054140852014836        0.0000000000000000     
   55.987267101110106       -20.011120923085159        0.0000000000000000     
   60.014283880735881       -20.004412909386119        0.0000000000000000     
   62.598075953958904       -20.002159945088106        0.0000000000000000     
   88.412394457416625       -20.000269014525035        0.0000000000000000     
   92.087545786392212       -20.000448138206416        0.0000000000000000     
   96.001181540870803       -20.000365465351582        0.0000000000000000     
   4.0368921996745408       -15.989065101893996        0.0000000000000000     
   8.0797247246652670       -15.803736294637776        0.0000000000000000     
   12.237252210262456       -16.292435661799846        0.0000000000000000     
   29.193569976651911       -15.796683012765786        0.0000000000000000     
   31.806279908481095       -15.971380794175612        0.0000000000000000     
   35.983322119374591       -16.000457755132942        0.0000000000000000     
   40.030203693133721       -16.034248758273062        0.0000000000000000     
   44.071010482516591       -16.117024443878996        0.0000000000000000     
   48.001879873153527       -16.034398008123372        0.0000000000000000     
   52.009917804411032       -16.009697813742978        0.0000000000000000     
   56.232336826014730       -16.012203238167270        0.0000000000000000     
   59.195085847967761       -16.039783575960591        0.0000000000000000     
   62.856299731800540       -16.048190645406752        0.0000000000000000     
   88.272734580639508       -16.375368709837492        0.0000000000000000     
   91.996865003328779       -16.133168620373500        0.0000000000000000     
   95.984275409650081       -16.036990111624799        0.0000000000000000     
   4.4715534300732021       -11.653699556865407        0.0000000000000000     
   8.0893514955863548       -12.644146966954660        0.0000000000000000     
   12.061823150375975       -11.595628391903171        0.0000000000000000     
   15.909444783197026       -12.278572001011167        0.0000000000000000     
   19.907797886651068       -11.807873011313049        0.0000000000000000     
   23.406035916657785       -12.060838528494783        0.0000000000000000     
   27.029878253729851       -13.019574286133096        0.0000000000000000     
   31.959703678807941       -12.039624085493653        0.0000000000000000     
   35.985093844075131       -11.984980586381523        0.0000000000000000     
   40.001601770863545       -11.984106256333680        0.0000000000000000     
   44.002642111314415       -11.994997774472612        0.0000000000000000     
   47.999874757283386       -11.986249702595121        0.0000000000000000     
   52.015036204604435       -11.985909420739562        0.0000000000000000     
   56.030337370426949       -12.006384215062472        0.0000000000000000     
   60.412726751178603       -12.139669924562975        0.0000000000000000     
   64.057507239934623       -12.140976660512639        0.0000000000000000     
   66.795232962746894       -10.813840401487624        0.0000000000000000     
   84.614341900452587       -11.364021095174346        0.0000000000000000     
   87.361284384993581       -12.529470456780276        0.0000000000000000     
   91.862903404351769       -12.178577859188236        0.0000000000000000     
   95.956179994912063       -12.055751720453795        0.0000000000000000     
   3.6383768393610936       -8.3348674342069735        0.0000000000000000     
   7.9940152005113081       -8.0998274667628412        0.0000000000000000     
   12.012350870194336       -8.0266736579474109        0.0000000000000000     
   15.989827114889149       -8.0096096612845162        0.0000000000000000     
   19.926430134356849       -8.0335285303472705        0.0000000000000000     
   23.856878427216017       -8.1901727640395698        0.0000000000000000     
   28.189630459395893       -8.6169806390464920        0.0000000000000000     
   31.589255325268731       -7.6756033475954197        0.0000000000000000     
   35.996244791078603       -7.9735881986258192        0.0000000000000000     
   40.001727138952006       -7.7395075426721780        0.0000000000000000     
   44.000023479604508       -7.9909034026088719        0.0000000000000000     
   47.998273720482530       -7.7395353056478235        0.0000000000000000     
   52.002863445917740       -7.9725284431777803        0.0000000000000000     
   56.384068519857713       -7.6416288737205935        0.0000000000000000     
   59.682897715600731       -8.4757816881089969        0.0000000000000000     
   63.970472648007949       -8.0945384492580974        0.0000000000000000     
   68.180989654940248       -8.1903004626090947        0.0000000000000000     
   72.231107659168515       -7.2334134105371399        0.0000000000000000     
   75.983480282846287       -7.1070489127403071        0.0000000000000000     
   79.634746136509008       -7.3703525637099592        0.0000000000000000     
   83.467917109861247       -8.5113734556424738        0.0000000000000000     
   87.795643354316809       -8.1813062735609332        0.0000000000000000     
   91.861218947080275       -8.1302167306331867        0.0000000000000000     
   95.948423478691154       -8.0526804468055637        0.0000000000000000     
   3.9439922559195586       -3.9943588904601457        0.0000000000000000     
   7.9697627972269665       -4.0425902668529314        0.0000000000000000     
   12.001961065010283       -4.0185195258408459        0.0000000000000000     
   16.000354560290919       -4.0121458678749349        0.0000000000000000     
   19.987039287303599       -4.0303396586274296        0.0000000000000000     
   24.001703604856164       -4.0933640579623791        0.0000000000000000     
   28.055712840766539       -4.1427697571018092        0.0000000000000000     
   32.406403642479368       -4.3562379428536895        0.0000000000000000     