 VARIABLES = "X", "Y", "Z"
 ZONE F=FEPOINT, ET=QUADRILATERAL, N=          17 E=          12
 -0.36286740407491652      -0.36286753641207237        0.0000000000000000     
   1.0463773031578290E-007 -0.40811427196600786        0.0000000000000000     
  0.36286758419877191      -0.36286745167790119        0.0000000000000000     
 -0.40811423525647883       -2.2158633288337469E-008   0.0000000000000000     
   3.4617050791152166E-008   9.9120365310848082E-010   0.0000000000000000     
  0.40811430734911447        2.4665901778800631E-008   0.0000000000000000     
 -0.36286749186593598       0.36286748908135452        0.0000000000000000     
   6.6583587648504736E-010  0.40811427453819465        0.0000000000000000     
  0.36286749290853854       0.36286750419602964        0.0000000000000000     
  -1.0000000000000000       -4.5511848700121884E-010   0.0000000000000000     
 -0.70710659966654843      -0.70710696270649998        0.0000000000000000     
   2.5670801110881701E-007 -0.99999999999996703        0.0000000000000000     
  0.70710696270650031      -0.70710659966654821        0.0000000000000000     
   1.0000000000000000        0.0000000000000000        0.0000000000000000     
  0.70710675603818618       0.70710680633490808        0.0000000000000000     
  -2.3861808689903184E-008  0.99999999999999967        0.0000000000000000     
 -0.70710678978387975       0.70710677258921517        0.0000000000000000     
           1           2           5           4
           2           3           6           5
           4           5           8           7
           5           6           9           8
           4          10          11           1
           1          11          12           2
           2          12          13           3
           3          13          14           6
           6          14          15           9
           9          15          16           8
           8          16          17           7
           7          17          10           4
