 VARIABLES = "X", "Y", "Z"
 ZONE F=FEPOINT, ET=QUADRILATERAL, N=         377 E=         340
 -0.36443492803236571      -0.87400294057726657        0.0000000000000000     
 -0.29932298687433256      -0.87744591717692133        0.0000000000000000     
 -0.20568601938433281      -0.88649766715567124        0.0000000000000000     
 -0.10418768083656083      -0.89423327796023400        0.0000000000000000     
  -5.3916203862187604E-008 -0.89708580979005392        0.0000000000000000     
  0.10418761752314989      -0.89423327795993002        0.0000000000000000     
  0.20568600849204452      -0.88649766715179334        0.0000000000000000     
  0.29932298522217821      -0.87744591715109099        0.0000000000000000     
  0.36443492786852982      -0.87400294053308825        0.0000000000000000     
 -0.48193416070099770      -0.79697637298149915        0.0000000000000000     
 -0.40343688214645740      -0.81342562323007883        0.0000000000000000     
 -0.29904427336001965      -0.79624642616692187        0.0000000000000000     
 -0.20136597012868521      -0.79555795701598331        0.0000000000000000     
 -0.10124018858702817      -0.79743621626948158        0.0000000000000000     
  -1.4845550830538670E-008 -0.79831986732158378        0.0000000000000000     
  0.10124016679537502      -0.79743621626880912        0.0000000000000000     
  0.20136596174615684      -0.79555795700586829        0.0000000000000000     
  0.29904427181221460      -0.79624642607121909        0.0000000000000000     
  0.40343688246633186      -0.81342562270937080        0.0000000000000000     
  0.48193416167793562      -0.79697637199086580        0.0000000000000000     
 -0.67015717966680821      -0.67015727369542000        0.0000000000000000     
 -0.61379113757548898      -0.68701658969148627        0.0000000000000000     
 -0.51750167516124679      -0.72241961164984181        0.0000000000000000     
 -0.40314501348020271      -0.70641988879119033        0.0000000000000000     
 -0.30128831676033208      -0.70180771795032104        0.0000000000000000     
 -0.20051873870131476      -0.69954227240481270        0.0000000000000000     
 -0.10029722050483142      -0.69938464571810666        0.0000000000000000     
  -3.1763844195687213E-009 -0.69949711101783385        0.0000000000000000     
  0.10029721547251051      -0.69938464571716064        0.0000000000000000     
  0.20051873625117300      -0.69954227238929423        0.0000000000000000     
  0.30128831621607027      -0.70180771777976780        0.0000000000000000     
  0.40314501466778557      -0.70641988748665796        0.0000000000000000     
  0.51750168273987907      -0.72241960406014305        0.0000000000000000     
  0.61379118738210414      -0.68701653988443923        0.0000000000000000     
  0.67015727369541311      -0.67015717966680155        0.0000000000000000     
 -0.68701653988444567      -0.61379118738232052        0.0000000000000000     
 -0.60245758232370461      -0.60245760445260299        0.0000000000000000     
 -0.50553012593300006      -0.60454510691834829        0.0000000000000000     
 -0.40316556973180784      -0.60388725980426805        0.0000000000000000     
 -0.30104171179330141      -0.60137050578012219        0.0000000000000000     
 -0.20032685630722474      -0.60028403423728260        0.0000000000000000     
 -0.10008936564170026      -0.59996245300356332        0.0000000000000000     
  -4.6998283469914777E-010 -0.59992208013356296        0.0000000000000000     
  0.10008936486680264      -0.59996245300265205        0.0000000000000000     
  0.20032685589063542      -0.60028403422222099        0.0000000000000000     
  0.30104171180462802      -0.60137050561203909        0.0000000000000000     
  0.40316557099862971      -0.60388725850235547        0.0000000000000000     
  0.50553013312599826      -0.60454509972083237        0.0000000000000000     
  0.60245760445243468      -0.60245758232353663        0.0000000000000000     
  0.68701658969147983      -0.61379113757527315        0.0000000000000000     
 -0.79697637199086591      -0.48193416168479553        0.0000000000000000     
 -0.72241960406014594      -0.51750168274542208        0.0000000000000000     
 -0.60454509972088266      -0.50553013312826101        0.0000000000000000     
 -0.50224378119209567      -0.50224378386560820        0.0000000000000000     
 -0.40122890464630151      -0.50126164106363114        0.0000000000000000     
 -0.30049757174257169      -0.50057113401732445        0.0000000000000000     
 -0.20014625317861909      -0.50016354023032528        0.0000000000000000     
 -0.10003368948955592      -0.50002669750291662        0.0000000000000000     
  -4.6220784085339090E-011 -0.49999997111058336        0.0000000000000000     
  0.10003368941170374      -0.50002669750231055        0.0000000000000000     
  0.20014625314048762      -0.50016354022090981        0.0000000000000000     
  0.30049757181882270      -0.50057113392095953        0.0000000000000000     
  0.40122890528816979      -0.50126164041607590        0.0000000000000000     
  0.50224378386510649      -0.50224378119159496        0.0000000000000000     
  0.60454510691829799      -0.50553012593074143        0.0000000000000000     
  0.72241961164983881      -0.51750167515571377        0.0000000000000000     
  0.79697637298149904      -0.48193416069415013        0.0000000000000000     
 -0.87400294053308825      -0.36443492797272142        0.0000000000000000     
 -0.81342562270937091      -0.40343688256692684        0.0000000000000000     
 -0.70641988748665863      -0.40314501472636399        0.0000000000000000     
 -0.60388725850236413      -0.40316557101620637        0.0000000000000000     
 -0.50126164041613630      -0.40122890529101835        0.0000000000000000     
 -0.40042585689383653      -0.40042585707288586        0.0000000000000000     
 -0.30014906300876470      -0.40015575375352042        0.0000000000000000     
 -0.20004488113773788      -0.40004898391303340        0.0000000000000000     
 -0.10001011760118370      -0.40001092486495449        0.0000000000000000     
  -2.9668826488210421E-012 -0.40000304048159646        0.0000000000000000     
  0.10001011759629917      -0.40001092486467921        0.0000000000000000     
  0.20004488113816768      -0.40004898390927007        0.0000000000000000     
  0.30014906303988853      -0.40015575372081691        0.0000000000000000     
  0.40042585707261913      -0.40042585689357041        0.0000000000000000     
  0.50126164106357063      -0.40122890464345812        0.0000000000000000     
  0.60388725980425972      -0.40316556971426259        0.0000000000000000     
  0.70641988879118944      -0.40314501342172809        0.0000000000000000     
  0.81342562323007872      -0.40343688204604061        0.0000000000000000     
  0.87400294057726646      -0.36443492792835852        0.0000000000000000     
 -0.87744591715109166      -0.29932298606265950        0.0000000000000000     
 -0.79624642607121998      -0.29904427263542738        0.0000000000000000     
 -0.70180771777976891      -0.30128831657411298        0.0000000000000000     
 -0.60137050561204064      -0.30104171188314655        0.0000000000000000     
 -0.50057113392096386      -0.30049757182889802        0.0000000000000000     
 -0.40015575372083190      -0.30014906304067990        0.0000000000000000     
 -0.30003809776372897      -0.30003809777047458        0.0000000000000000     
 -0.20000963999450927      -0.30001000163071073        0.0000000000000000     
 -0.10000216968166387      -0.30000239807227491        0.0000000000000000     
  -1.1995379997186817E-013 -0.30000081248699823        0.0000000000000000     
  0.10000216968152795      -0.30000239807219198        0.0000000000000000     
  0.20000963999530380      -0.30001000162976721        0.0000000000000000     
  0.30003809777043589      -0.30003809776369050        0.0000000000000000     
  0.40015575375350554      -0.30014906300797495        0.0000000000000000     
  0.50057113401732045      -0.30049757173251523        0.0000000000000000     
  0.60137050578012208      -0.30104171171492422        0.0000000000000000     
  0.70180771795032160      -0.30128831640292603        0.0000000000000000     
  0.79624642616692265      -0.29904427253826726        0.0000000000000000     
  0.87744591717692200      -0.29932298603534119        0.0000000000000000     
 -0.88649766715181899      -0.20568601394983529        0.0000000000000000     
 -0.79555795700590592      -0.20136596594999001        0.0000000000000000     
 -0.69954227238932765      -0.20051873748625290        0.0000000000000000     
 -0.60028403422224219      -0.20032685610688380        0.0000000000000000     
 -0.50016354022091958      -0.20014625316432158        0.0000000000000000     
 -0.40004898390927379      -0.20004488113984328        0.0000000000000000     
 -0.30001000162976910      -0.20000963999537968        0.0000000000000000     
 -0.20000179634244045      -0.20000179634258752        0.0000000000000000     
 -0.10000033650139203      -0.20000036315162623        0.0000000000000000     
  -2.2782709556802908E-015 -0.20000012953003929        0.0000000000000000     
  0.10000033650140207      -0.20000036315161029        0.0000000000000000     
  0.20000179634258525      -0.20000179634243839        0.0000000000000000     
  0.30001000163071001      -0.20000963999443599        0.0000000000000000     
  0.40004898391303551      -0.20004488113607632        0.0000000000000000     
  0.50016354023033349      -0.20014625315486140        0.0000000000000000     
  0.60028403423730081      -0.20032685609143416        0.0000000000000000     
  0.69954227240484179      -0.20051873746854024        0.0000000000000000     
  0.79555795701601584      -0.20136596593242598        0.0000000000000000     
  0.88649766715569356      -0.20568601393629218        0.0000000000000000     
 -0.89423327796058949      -0.10418764923739918        0.0000000000000000     
 -0.79743621626975369      -0.10124017771267524        0.0000000000000000     
 -0.69938464571796544      -0.10029721799515154        0.0000000000000000     
 -0.59996245300312312      -0.10008936525629364        0.0000000000000000     
 -0.50002669750250384      -0.10003368945136687        0.0000000000000000     
 -0.40001092486473377      -0.10001011759898443        0.0000000000000000     
 -0.30000239807220230      -0.10000216968165591        0.0000000000000000     
 -0.20000036315161160      -0.10000033650140723        0.0000000000000000     
 -0.10000004737500592      -0.10000004737500789        0.0000000000000000     
   8.0930643859677277E-017 -0.10000001431718371        0.0000000000000000     
  0.10000004737500770      -0.10000004737500591        0.0000000000000000     
  0.20000036315162725      -0.10000033650139094        0.0000000000000000     
  0.30000239807228396      -0.10000216968157032        0.0000000000000000     
  0.40001092486500223      -0.10001011759869127        0.0000000000000000     
  0.50002669750308548      -0.10003368945064324        0.0000000000000000     
  0.59996245300397411      -0.10008936525457660        0.0000000000000000     
  0.69938464571880743      -0.10029721798954094        0.0000000000000000     
  0.79743621627030359      -0.10124017769244630        0.0000000000000000     
  0.89423327796080798      -0.10418764918080456        0.0000000000000000     
 -0.89708580980120833       -1.1705793941632529E-010   0.0000000000000000     
 -0.79831986733720284       -5.6281735016612144E-011   0.0000000000000000     
 -0.69949711103048751       -2.9735710540438418E-011   0.0000000000000000     
 -0.59992208014037451       -1.3655952410032409E-011   0.0000000000000000     
 -0.49999997111305478       -4.6429830744343856E-012   0.0000000000000000     
 -0.40000304048219237       -1.0693943277547611E-012   0.0000000000000000     
 -0.30000081248709376       -1.6345062136959664E-013   0.0000000000000000     
 -0.20000012953004973       -1.7637640768063859E-014   0.0000000000000000     
 -0.10000001431718426       -1.1798018769213329E-015   0.0000000000000000     
  -9.2797541569392208E-018  -4.9184086165811325E-017   0.0000000000000000     
  0.10000001431718428       -8.7861590053440417E-016   0.0000000000000000     
  0.20000012953004934       -1.4449506044802997E-014   0.0000000000000000     
  0.30000081248708610       -1.3862419303005849E-013   0.0000000000000000     
  0.40000304048212909       -9.1680013293866798E-013   0.0000000000000000     
  0.49999997111276229       -3.9499264102740948E-012   0.0000000000000000     
  0.59992208013952919       -1.1125958848622112E-011   0.0000000000000000     
  0.69949711102888079       -2.0930628235497835E-011   0.0000000000000000     
  0.79831986733519600       -2.6025312559375233E-011   0.0000000000000000     
  0.89708580979976760       -1.8651222325057165E-011   0.0000000000000000     
 -0.89423327808509601       0.10418764888440811        0.0000000000000000     
 -0.79743621643972407       0.10124017734780646        0.0000000000000000     
 -0.69938464584839422       0.10029721773929216        0.0000000000000000     
 -0.59996245306723706       0.10008936513636187        0.0000000000000000     
 -0.50002669752309781       0.10003368941465010        0.0000000000000000     
 -0.40001092486915646       0.10001011759157950        0.0000000000000000     
 -0.30000239807285956       0.10000216968060763        0.0000000000000000     
 -0.20000036315166569       0.10000033650131510        0.0000000000000000     
 -0.10000004737500534       0.10000004737500513        0.0000000000000000     
   3.6001305831877976E-017  0.10000001431718489        0.0000000000000000     
  0.10000004737500515       0.10000004737500558        0.0000000000000000     
  0.20000036315165870       0.10000033650132599        0.0000000000000000     
  0.30000239807277995       0.10000216968073136        0.0000000000000000     
  0.40001092486861278       0.10001011759248118        0.0000000000000000     
  0.50002669752050333       0.10003368941929071        0.0000000000000000     
  0.59996245305901941       0.10008936515214098        0.0000000000000000     
  0.69938464583150306       0.10029721777551062        0.0000000000000000     
  0.79743621641757845       0.10124017740931736        0.0000000000000000     
  0.89423327806882036       0.10418764897176001        0.0000000000000000     
 -0.88649766808964781       0.20568601214454627        0.0000000000000000     
 -0.79555795825811371       0.20136596358494122        0.0000000000000000     
 -0.69954227329365248       0.20051873583022647        0.0000000000000000     
 -0.60028403462301050       0.20032685540776032        0.0000000000000000     
 -0.50016354033625743       0.20014625297673713        0.0000000000000000     
 -0.40004898393217625       0.20004488110452023        0.0000000000000000     
 -0.30001000163230213       0.20000963999124896        0.0000000000000000     
 -0.20000179634241555       0.20000179634241019        0.0000000000000000     
 -0.10000033650131900       0.20000036315166586        0.0000000000000000     
   7.8913257865905183E-016  0.20000012953005997        0.0000000000000000     
  0.10000033650132319       0.20000036315166389        0.0000000000000000     
  0.20000179634240586       0.20000179634243864        0.0000000000000000     
  0.30001000163198249       0.20000963999174809        0.0000000000000000     
  0.40004898392944138       0.20004488110875357        0.0000000000000000     
  0.50016354032225818       0.20014625299980443        0.0000000000000000     
  0.60028403457297708       0.20032685549628507        0.0000000000000000     
  0.69954227317845152       0.20051873604442935        0.0000000000000000     
  0.79555795809667162       0.20136596389688138        0.0000000000000000     
  0.88649766796794938       0.20568601238672612        0.0000000000000000     
 -0.87744592197297333       0.29932297687938814        0.0000000000000000     
 -0.79624643246108606       0.29904426079064905        0.0000000000000000     
 -0.70180772200375696       0.30128830913614230        0.0000000000000000     
 -0.60137050725565289       0.30104170922097706        0.0000000000000000     
 -0.50057113437128675       0.30049757114057746        0.0000000000000000     
 -0.40015575378891705       0.30014906293107646        0.0000000000000000     
 -0.30003809776359142       0.30003809776348250        0.0000000000000000     
 -0.20000963999132154       0.30001000163226671        0.0000000000000000     
 -0.10000216968065680       0.30000239807285628        0.0000000000000000     
  -1.2857361710543047E-015  0.30000081248718247        0.0000000000000000     
  0.10000216968070112       0.30000239807281803        0.0000000000000000     
  0.20000963999150273       0.30001000163219460        0.0000000000000000     
  0.30003809776318802       0.30003809776455775        0.0000000000000000     
  0.40015575378039420       0.30014906294426585        0.0000000000000000     
  0.50057113431775846       0.30049757122277398        0.0000000000000000     
  0.60137050705656947       0.30104170954761428        0.0000000000000000     
  0.70180772147419035       0.30128831007909695        0.0000000000000000     
  0.79624643164190223       0.29904426231996412        0.0000000000000000     
  0.87744592134734156       0.29932297807604608        0.0000000000000000     
 -0.87400295769314518       0.36443489483378294        0.0000000000000000     
 -0.81342564821250196       0.40343683564641747        0.0000000000000000     
 -0.70641989978576325       0.40314499486334437        0.0000000000000000     
 -0.60388726346499721       0.40316556360547767        0.0000000000000000     
 -0.50126164146257302       0.40122890367112785        0.0000000000000000     
 -0.40042585691520372       0.40042585691551069        0.0000000000000000     
 -0.30014906293243593       0.40015575378836193        0.0000000000000000     
 -0.20004488110539864       0.40004898393178762        0.0000000000000000     
 -0.10001011759211076       0.40001092486909795        0.0000000000000000     
  -2.1221512981580753E-013  0.40000304048272728        0.0000000000000000     
  0.10001011759209164       0.40001092486882489        0.0000000000000000     
  0.20004488110718960       0.40004898393053540        0.0000000000000000     
  0.30014906293682841       0.40015575378702922        0.0000000000000000     
  0.40042585690531574       0.40042585693834415        0.0000000000000000     
  0.50126164133470463       0.40122890386343329        0.0000000000000000     
  0.60388726288206196       0.40316556448211133        0.0000000000000000     
  0.70641989829876350       0.40314499729766867        0.0000000000000000     
  0.81342564495354530       0.40343684168531491        0.0000000000000000     
  0.87400295545241480       0.36443489916823735        0.0000000000000000     
 -0.79697640963093885       0.48193410035505768        0.0000000000000000     
 -0.72241963634779960       0.51750163673563132        0.0000000000000000     
 -0.60454510866443167       0.50553012037035094        0.0000000000000000     
 -0.50224378186275997       0.50224378191225805        0.0000000000000000     
 -0.40122890367985559       0.50126164146415186        0.0000000000000000     
 -0.30049757115408643       0.50057113436490175        0.0000000000000000     
 -0.20014625298389566       0.50016354033360444        0.0000000000000000     
 -0.10003368941982747       0.50002669752266626        0.0000000000000000     
  -4.0284776325194697E-012  0.49999997111523842        0.0000000000000000     
  0.10003368941475112       0.50002669752140971        0.0000000000000000     
  0.20014625299097177       0.50016354032667942        0.0000000000000000     
  0.30049757119136905       0.50057113434205880        0.0000000000000000     
  0.40122890373432607       0.50126164145351060        0.0000000000000000     
  0.50224378172501793       0.50224378217263455        0.0000000000000000     
  0.60454510762386093       0.50553012183948964        0.0000000000000000     
  0.72241963263531750       0.51750164206738014        0.0000000000000000     
  0.79697640506058087       0.48193410789700952        0.0000000000000000     
 -0.68701657806306649       0.61379114126972434        0.0000000000000000     
 -0.60245759058840820       0.60245759134482368        0.0000000000000000     
 -0.50553012029016675       0.60454510881150869        0.0000000000000000     
 -0.40316556372118795       0.60388726341329158        0.0000000000000000     
 -0.30104170929576585       0.60137050721974783        0.0000000000000000     
 -0.20032685544990209       0.60028403461148383        0.0000000000000000     
 -0.10008936517789936       0.59996245306556872        0.0000000000000000     
  -4.2942139736298333E-011  0.59992208014634740        0.0000000000000000     
  0.10008936511280138       0.59996245306173945        0.0000000000000000     
  0.20032685545180101       0.60028403458734303        0.0000000000000000     
  0.30104170944171887       0.60137050712372342        0.0000000000000000     
  0.40316556412439852       0.60388726317580133        0.0000000000000000     
  0.50553012058161473       0.60454510881484658        0.0000000000000000     
  0.60245758951960915       0.60245759287712519        0.0000000000000000     
  0.68701657401672123       0.61379114619529263        0.0000000000000000     
 -0.67015722316684301       0.67015722745492123        0.0000000000000000     
 -0.61379113944843522       0.68701658001023369        0.0000000000000000     
 -0.51750163735130994       0.72241963605388360        0.0000000000000000     
 -0.40314499536697218       0.70641989952216866        0.0000000000000000     
 -0.30128830940403684       0.70180772188026519        0.0000000000000000     
 -0.20051873600297923       0.69954227326433616        0.0000000000000000     
 -0.10029721798772290       0.69938464584462012        0.0000000000000000     
  -2.9386644990136972E-010  0.69949711104154100        0.0000000000000000     
  0.10029721753425451       0.69938464583695870        0.0000000000000000     
  0.20051873587109700       0.69954227321071472        0.0000000000000000     
  0.30128830978013232       0.70180772162939076        0.0000000000000000     
  0.40314499655162384       0.70641989880487888        0.0000000000000000     
  0.51750164004073895       0.72241963434020606        0.0000000000000000     
  0.61379113875714053       0.68701658132899568        0.0000000000000000     
  0.67015721884581647       0.67015723203824629        0.0000000000000000     
 -0.48193410206467674       0.79697640866152353        0.0000000000000000     
 -0.40343683725689217       0.81342564737808820        0.0000000000000000     
 -0.29904426127821654       0.79624643224759850        0.0000000000000000     
 -0.20136596406559151       0.79555795821495101        0.0000000000000000     
 -0.10124017839327493       0.79743621643453266        0.0000000000000000     
  -1.3782225642220784E-009  0.79831986735081850        0.0000000000000000     
  0.10124017638644216       0.79743621642465912        0.0000000000000000     
  0.20136596342192453       0.79555795814178420        0.0000000000000000     
  0.29904426181606514       0.79624643187318356        0.0000000000000000     
  0.40343683997821533       0.81342564588476218        0.0000000000000000     
  0.48193410600323749       0.79697640621416088        0.0000000000000000     
 -0.36443489606243235       0.87400295706688480        0.0000000000000000     
 -0.29932297729004004       0.87744592180183600        0.0000000000000000     
 -0.20568601272516118       0.88649766805631602        0.0000000000000000     
 -0.10418765189299335       0.89423327808119235        0.0000000000000000     
  -5.0104514247202585E-009  0.89708580981091801        0.0000000000000000     
  0.10418764602161103       0.89423327807400610        0.0000000000000000     
  0.20568601181514012       0.88649766800204888        0.0000000000000000     
  0.29932297766208160       0.87744592152328238        0.0000000000000000     
  0.36443489793155920       0.87400295608688849        0.0000000000000000     
 -0.45535066897416859      -0.89031217461336398        0.0000000000000000     
 -0.39627989444180023      -0.91812975404416319        0.0000000000000000     
 -0.31523728684670327      -0.94901288346446033        0.0000000000000000     
 -0.21693042253704631      -0.97618706802430988        0.0000000000000000     
 -0.11043146571349130      -0.99388374138043434        0.0000000000000000     
  -2.5670801147621104E-007 -0.99999999999996703        0.0000000000000000     
  0.11043146571349094      -0.99388374138043434        0.0000000000000000     
  0.21693042253704595      -0.97618706802430988        0.0000000000000000     
  0.31523728684670460      -0.94901288346445989        0.0000000000000000     
  0.39627989444180067      -0.91812975404416308        0.0000000000000000     
  0.45535066897416981      -0.89031217461336332        0.0000000000000000     
  0.52447750662621295      -0.85142430376584310        0.0000000000000000     
  0.58555495475800134      -0.81063271273638782        0.0000000000000000     
  0.65079132518593708      -0.75925664373960666        0.0000000000000000     
  0.70710696270650031      -0.70710659966654821        0.0000000000000000     
  0.75925664373960688      -0.65079132518593674        0.0000000000000000     
  0.81063271273638804      -0.58555495475800090        0.0000000000000000     
  0.85142430376584333      -0.52447750662621262        0.0000000000000000     
  0.89031217461336398      -0.45535066897416865        0.0000000000000000     
  0.91812975404416319      -0.39627989444180028        0.0000000000000000     
  0.94901288346446033      -0.31523728684670332        0.0000000000000000     
  0.97618706802430988      -0.21693042253704636        0.0000000000000000     
  0.99388374138043434      -0.11043146571349136        0.0000000000000000     
   1.0000000000000000        0.0000000000000000        0.0000000000000000     
  0.99388374138043434       0.11043146571349138        0.0000000000000000     
  0.97618706802430977       0.21693042253704686        0.0000000000000000     
  0.94901288346446011       0.31523728684670388        0.0000000000000000     
  0.91812975404416308       0.39627989444180067        0.0000000000000000     
  0.89031227318960160       0.45535047623557406        0.0000000000000000     
  0.85142430376584288       0.52447750662621329        0.0000000000000000     
  0.81063284083304199       0.58555477742304529        0.0000000000000000     
  0.75925664373960633       0.65079132518593741        0.0000000000000000     
  0.70710675603818618       0.70710680633490808        0.0000000000000000     
  0.65079132518593752       0.75925664373960622        0.0000000000000000     
  0.58555477356166485       0.81063284362228216        0.0000000000000000     
  0.52447750662621340       0.85142430376584288        0.0000000000000000     
  0.45535046794038936       0.89031227743217634        0.0000000000000000     
  0.39627989444180090       0.91812975404416297        0.0000000000000000     
  0.31523728684670399       0.94901288346446011        0.0000000000000000     
  0.21693042253704706       0.97618706802430966        0.0000000000000000     
  0.11043146571349162       0.99388374138043423        0.0000000000000000     
  -2.3861808689903184E-008  0.99999999999999967        0.0000000000000000     
 -0.11043146571349149       0.99388374138043423        0.0000000000000000     
 -0.21693042253704628       0.97618706802430988        0.0000000000000000     
 -0.31523728684670344       0.94901288346446022        0.0000000000000000     
 -0.39627989444180062       0.91812975404416308        0.0000000000000000     
 -0.45535045539631142       0.89031228384784844        0.0000000000000000     
 -0.52447750662621306       0.85142430376584310        0.0000000000000000     
 -0.58555475844881399       0.81063285453894052        0.0000000000000000     
 -0.65079132518593719       0.75925664373960655        0.0000000000000000     
 -0.70710677258920940       0.70710678978388553        0.0000000000000000     
 -0.75925664373960611       0.65079132518593763        0.0000000000000000     
 -0.81063285732818047       0.58555475458743378        0.0000000000000000     
 -0.85142430376584277       0.52447750662621362        0.0000000000000000     
 -0.89031228809042251       0.45535044710112726        0.0000000000000000     
 -0.91812975404416286       0.39627989444180095        0.0000000000000000     
 -0.94901288346446000       0.31523728684670405        0.0000000000000000     
 -0.97618706802430977       0.21693042253704670        0.0000000000000000     
 -0.99388374138043423       0.11043146571349212        0.0000000000000000     
  -1.0000000000000000       -4.5511848700121884E-010   0.0000000000000000     
 -0.99388374138043423      -0.11043146571349144        0.0000000000000000     
 -0.97618706802430977      -0.21693042253704645        0.0000000000000000     
 -0.94901288346446000      -0.31523728684670421        0.0000000000000000     
 -0.91812975404416297      -0.39627989444180073        0.0000000000000000     
 -0.89031217461336332      -0.45535066897416987        0.0000000000000000     
 -0.85142430376584310      -0.52447750662621306        0.0000000000000000     
 -0.81063271273638782      -0.58555495475800134        0.0000000000000000     
 -0.75925664373960655      -0.65079132518593708        0.0000000000000000     
 -0.70710659966654754      -0.70710696270650097        0.0000000000000000     
 -0.65079132518593663      -0.75925664373960700        0.0000000000000000     
 -0.58555495475800090      -0.81063271273638815        0.0000000000000000     
 -0.52447750662621251      -0.85142430376584344        0.0000000000000000     
           1           2          12          11
           2           3          13          12