 VARIABLES = "X", "Y", "Z"
 ZONE F=FEPOINT, ET=QUADRILATERAL, N=         996 E=         931
 -0.24667352293914410      -0.93356940863444504        0.0000000000000000     
 -0.20486652573581612      -0.93273796945310150        0.0000000000000000     
 -0.14737532839942730      -0.93505601572728925        0.0000000000000000     
  -8.6654984391921791E-002 -0.93775008381701253        0.0000000000000000     
  -2.5088886748055216E-002 -0.93899897498110485        0.0000000000000000     
   3.6587266224069805E-002 -0.93831631637152346        0.0000000000000000     
   9.7928280858917943E-002 -0.93565839439011589        0.0000000000000000     
  0.15843416794790482      -0.93118066126655663        0.0000000000000000     
  0.21711401507949382      -0.92546247638892221        0.0000000000000000     
  0.27147636510201700      -0.92030236002685228        0.0000000000000000     
  0.31000360567451868      -0.91895914426372582        0.0000000000000000     
 -0.42693741941232050      -0.87017446396319365        0.0000000000000000     
 -0.39028960645572497      -0.87364737241889601        0.0000000000000000     
 -0.33925502804216578      -0.88174842915164386        0.0000000000000000     
 -0.27651969430236922      -0.89504490241384993        0.0000000000000000     
 -0.21400124196379469      -0.88078784158297818        0.0000000000000000     
 -0.15517085527103103      -0.87876651822607554        0.0000000000000000     
  -9.5113090158058342E-002 -0.87908778678621458        0.0000000000000000     
  -3.4612184172963550E-002 -0.87942818557729530        0.0000000000000000     
   2.5947442062979619E-002 -0.87917333483568738        0.0000000000000000     
   8.6378173486953161E-002 -0.87823312136319764        0.0000000000000000     
  0.14648019838005610      -0.87671045279734106        0.0000000000000000     
  0.20598294155210284      -0.87507387019651295        0.0000000000000000     
  0.26505786972016665      -0.87489973380804797        0.0000000000000000     
  0.33300472184432817      -0.88278972426350266        0.0000000000000000     
  0.39549663128885332      -0.86778921415710975        0.0000000000000000     
  0.43471044702912542      -0.86251053091530550        0.0000000000000000     
 -0.49706695203491397      -0.82278326965269444        0.0000000000000000     
 -0.45226593280150934      -0.83229248968453096        0.0000000000000000     
 -0.39546216057131500      -0.82123815943635026        0.0000000000000000     
 -0.33905561762268932      -0.82196202721848799        0.0000000000000000     
 -0.27957027915409044      -0.82335987864247207        0.0000000000000000     
 -0.21907175068071386      -0.82187648662415325        0.0000000000000000     
 -0.15886651972344676      -0.82015901576270578        0.0000000000000000     
  -9.8801482026643364E-002 -0.81982767411896718        0.0000000000000000     
  -3.8677621045170023E-002 -0.81982977116199074        0.0000000000000000     
   2.1453316542756017E-002 -0.81975804483313119        0.0000000000000000     
   8.1552366632866496E-002 -0.81953591192968667        0.0000000000000000     
  0.14160010241557736      -0.81922062265246609        0.0000000000000000     
  0.20171258872788539      -0.81907318841139420        0.0000000000000000     
  0.26269501338448847      -0.81968070908385959        0.0000000000000000     
  0.32472980461457918      -0.81970266732621655        0.0000000000000000     
  0.38626238388004780      -0.81831641974108216        0.0000000000000000     
  0.45562801814182835      -0.82312564384561593        0.0000000000000000     
  0.51605689125063003      -0.80393110673152179        0.0000000000000000     
  0.55330138231035220      -0.79562794070323672        0.0000000000000000     
 -0.61293640109651293      -0.75082420892593382        0.0000000000000000     
 -0.57833008621166559      -0.75880000564632932        0.0000000000000000     
 -0.52068616554484881      -0.77801369867319337        0.0000000000000000     
 -0.45776401483326945      -0.76580743809789131        0.0000000000000000     
 -0.39913923585790234      -0.76242349159865763        0.0000000000000000     
 -0.33989437280175655      -0.76107277754571323        0.0000000000000000     
 -0.28012433974801537      -0.76093581975051616        0.0000000000000000     
 -0.22001940120840299      -0.76062393564241360        0.0000000000000000     
 -0.15988699135608836      -0.76021009193275912        0.0000000000000000     
  -9.9819622512040837E-002 -0.76001240039834861        0.0000000000000000     
  -3.9787210566344766E-002 -0.75997315858310521        0.0000000000000000     
   2.0235383178734370E-002 -0.75995595011900152        0.0000000000000000     
   8.0254293961779716E-002 -0.75992441414038803        0.0000000000000000     
  0.14029005715823664      -0.75990286796833650        0.0000000000000000     
  0.20043947271041088      -0.75997526477161093        0.0000000000000000     
  0.26085058849903581      -0.76014968633843261        0.0000000000000000     
  0.32158520781546523      -0.76027136682280738        0.0000000000000000     
  0.38314366207804418      -0.76050863962707493        0.0000000000000000     
  0.44526676651516156      -0.75946695824145671        0.0000000000000000     
  0.50590561464893580      -0.75631074182577973        0.0000000000000000     
  0.57173882086594952      -0.75738962246551411        0.0000000000000000     
  0.61716681742201096      -0.74160535275918837        0.0000000000000000     
 -0.67531795692566443      -0.69389993223454216        0.0000000000000000     
 -0.63390557093664457      -0.70902846151071919        0.0000000000000000     
 -0.57753692237432974      -0.70285737743406285        0.0000000000000000     
 -0.52028297846030203      -0.70407106415011977        0.0000000000000000     
 -0.46030507178229596      -0.70308624315526858        0.0000000000000000     
 -0.40009935423128268      -0.70120143148723157        0.0000000000000000     
 -0.34010017005765147      -0.70046264632565225        0.0000000000000000     
 -0.28008735121596018      -0.70023633183280232        0.0000000000000000     
 -0.22005094393044056      -0.70014234693526101        0.0000000000000000     
 -0.16001151987998949      -0.70006249980185864        0.0000000000000000     
  -9.9988035752534135E-002 -0.70001484015493820        0.0000000000000000     
  -3.9978734520564260E-002 -0.69999918592187771        0.0000000000000000     
   2.0024963344327601E-002 -0.69999527447243870        0.0000000000000000     
   8.0029053624787627E-002 -0.69999375265330654        0.0000000000000000     
  0.14004385946321854      -0.70000107924905020        0.0000000000000000     
  0.20009274084985465      -0.70003176654342292        0.0000000000000000     
  0.26021045215549132      -0.70009376885086061        0.0000000000000000     
  0.32047094963773320      -0.70019834420149818        0.0000000000000000     
  0.38096222493376608      -0.70027346979388316        0.0000000000000000     
  0.44165940142445587      -0.70010226290885791        0.0000000000000000     
  0.50295506578283078      -0.69978543075389010        0.0000000000000000     
  0.56498269219443353      -0.69878737594799767        0.0000000000000000     
  0.63429307553599790      -0.70001995272654027        0.0000000000000000     
  0.67993658807138713      -0.68173058515037310        0.0000000000000000     
 -0.73329991376401904      -0.63392130221511644        0.0000000000000000     
 -0.69374749405933978      -0.65065198727048101        0.0000000000000000     
 -0.63669013453819301      -0.64364817719298018        0.0000000000000000     
 -0.57942878729546388      -0.64220828104854499        0.0000000000000000     
 -0.52021235121660436      -0.64131808474287233        0.0000000000000000     
 -0.46028829813524469      -0.64088208185005813        0.0000000000000000     
 -0.40015201524948224      -0.64042133825899172        0.0000000000000000     
 -0.34006212307821104      -0.64014524743820578        0.0000000000000000     
 -0.28002778480267709      -0.64005220321673928        0.0000000000000000     
 -0.22001363224710044      -0.64002385604702638        0.0000000000000000     
 -0.16000552877008312      -0.64001086144694652        0.0000000000000000     
 -0.10000088047447633      -0.64000352283839768        0.0000000000000000     
  -3.9998936982688235E-002 -0.64000054464031264        0.0000000000000000     
   2.0001742136929377E-002 -0.63999981330117106        0.0000000000000000     
   8.0002642663888471E-002 -0.64000016065453591        0.0000000000000000     
  0.14000593335879616      -0.64000258320045933        0.0000000000000000     
  0.20001591768271429      -0.64000983479836349        0.0000000000000000     
  0.26004242316701026      -0.64002711112362387        0.0000000000000000     
  0.32010464370532399      -0.64005949892660985        0.0000000000000000     
  0.38023140820103474      -0.64010310691629524        0.0000000000000000     
  0.44051026673778870      -0.64016604627270690        0.0000000000000000     
  0.50118572381283666      -0.64025244505424828        0.0000000000000000     
  0.56298391630875133      -0.64031878637405604        0.0000000000000000     
  0.62568587654893626      -0.63909470915865474        0.0000000000000000     
  0.69518229088027506      -0.63865402471047561        0.0000000000000000     
  0.73925774315327986      -0.61839524441077109        0.0000000000000000     
 -0.74358715862200464      -0.59798636514081260        0.0000000000000000     
 -0.69569538170587042      -0.58630445641695694        0.0000000000000000     
 -0.63920004809035613      -0.58279262286340772        0.0000000000000000     
 -0.57998599978055421      -0.58103639355683101        0.0000000000000000     
 -0.52013489560599957      -0.58044469564181200        0.0000000000000000     
 -0.46010377511719669      -0.58021178795391082        0.0000000000000000     
 -0.40005336401206604      -0.58009724757659353        0.0000000000000000     
 -0.34002020217495915      -0.58003466308380058        0.0000000000000000     
 -0.28000648274959394      -0.58001004845277226        0.0000000000000000     
 -0.22000226322594377      -0.58000323179777347        0.0000000000000000     
 -0.16000087822998996      -0.58000126587891188        0.0000000000000000     
 -0.10000027712801064      -0.58000045712323167        0.0000000000000000     
  -4.0000019172474754E-002 -0.58000011435684817        0.0000000000000000     
   2.0000083525321826E-002 -0.58000002587764943        0.0000000000000000     
   8.0000223118229435E-002 -0.58000010721127504        0.0000000000000000     
  0.14000069294286235      -0.58000049588490810        0.0000000000000000     
  0.20000220883330458      -0.58000171236526299        0.0000000000000000     
  0.26000657923966453      -0.58000492181944374        0.0000000000000000     
  0.32001788869556064      -0.58001217668540472        0.0000000000000000     
  0.38004892574849058      -0.58002954683482932        0.0000000000000000     
  0.44014551706451116      -0.58007618175770770        0.0000000000000000     
  0.50045056526135534      -0.58018589937515175        0.0000000000000000     
  0.56123314970018334      -0.58029699107617805        0.0000000000000000     
  0.62308907271317504      -0.58012142934711297        0.0000000000000000     
  0.68528925650556782      -0.57803841291523406        0.0000000000000000     
  0.75240717235636889      -0.57518304528506903        0.0000000000000000     
  0.79352659442558870      -0.55279980054239031        0.0000000000000000     
 -0.80887144988067872      -0.51924160333524816        0.0000000000000000     
 -0.76589517762884052      -0.53834032863556458        0.0000000000000000     
 -0.69996802653593182      -0.52590518695049948        0.0000000000000000     
 -0.64009509176841928      -0.52176557876608765        0.0000000000000000     
 -0.58012031961315924      -0.52050595241428610        0.0000000000000000     
 -0.52006282493707257      -0.52014340576383677        0.0000000000000000     
 -0.46002783609394693      -0.52004646873210647        0.0000000000000000     
 -0.40001150666782642      -0.52001696084733418        0.0000000000000000     
 -0.34000414365195009      -0.52000587984048585        0.0000000000000000     
 -0.28000119984058980      -0.52000163965844071        0.0000000000000000     
 -0.22000030761801306      -0.52000039647234841        0.0000000000000000     
 -0.16000008983550748      -0.52000011230551535        0.0000000000000000     
 -0.10000002919447394      -0.52000003771377756        0.0000000000000000     
  -4.0000006917227292E-002 -0.52000001145392660        0.0000000000000000     
   2.0000003139869493E-002 -0.52000000482594344        0.0000000000000000     
   8.0000017394989520E-002 -0.52000001387979633        0.0000000000000000     
  0.14000006671461176      -0.52000005704463859        0.0000000000000000     
  0.20000023879222492      -0.52000020354035159        0.0000000000000000     
  0.26000078336986576      -0.52000063979055167        0.0000000000000000     
  0.32000260414786963      -0.52000200545569009        0.0000000000000000     
  0.38000971330362748      -0.52000696877720587        0.0000000000000000     
  0.44003866333394354      -0.52002477679013359        0.0000000000000000     
  0.50014197775854163      -0.52007471631821933        0.0000000000000000     
  0.56045916878745727      -0.52016764395654913        0.0000000000000000     
  0.62120328168255057      -0.52016425184323900        0.0000000000000000     
  0.68275484394909991      -0.51964180558007622        0.0000000000000000     
  0.74371091213518881      -0.51734391749181718        0.0000000000000000     
  0.80001107607113897      -0.51701470871516364        0.0000000000000000     
 -0.85747667307494702      -0.45201930494365522        0.0000000000000000     
 -0.82114586252912003      -0.47206949274301846        0.0000000000000000     
 -0.76085264236108785      -0.46580735393122269        0.0000000000000000     
 -0.70110679456452452      -0.46327254635960813        0.0000000000000000     
 -0.64036382180403362      -0.46101858464215001        0.0000000000000000     
 -0.58010693263104629      -0.46024072270224614        0.0000000000000000     
 -0.52002787323747057      -0.46004954048029140        0.0000000000000000     
 -0.46000699872446149      -0.46001031790849850        0.0000000000000000     
 -0.40000194234503267      -0.46000256010936663        0.0000000000000000     
 -0.34000058558497931      -0.46000073740211161        0.0000000000000000     
 -0.28000016319305981      -0.46000020208369580        0.0000000000000000     
 -0.22000003728478526      -0.46000004507530684        0.0000000000000000     
 -0.16000000776799933      -0.46000000907044247        0.0000000000000000     
 -0.10000000194219645      -0.46000000225621412        0.0000000000000000     
  -4.0000000504245251E-002 -0.46000000068887292        0.0000000000000000     
   2.0000000122947371E-002 -0.46000000037846722        0.0000000000000000     
   8.0000001160817541E-002 -0.46000000109870609        0.0000000000000000     
  0.14000000506708257      -0.46000000462805807        0.0000000000000000     
  0.20000001983170579      -0.46000001773153593        0.0000000000000000     
  0.26000007883999504      -0.46000006826729517        0.0000000000000000     
  0.32000036254671760      -0.46000030153532478        0.0000000000000000     
  0.38000184996007624      -0.46000144614423394        0.0000000000000000     
  0.44000899189313364      -0.46000637937427774        0.0000000000000000     
  0.50003913862215499      -0.46002376952915219        0.0000000000000000     
  0.56014679900993047      -0.46006920961677694        0.0000000000000000     
  0.62048865258616126      -0.46014576938653201        0.0000000000000000     
  0.68140291719220925      -0.46012781418356852        0.0000000000000000     
  0.74402771587942429      -0.45972610352140031        0.0000000000000000     
  0.81694104620027741      -0.45847030793347343        0.0000000000000000     
  0.85956082988479821      -0.43265168520411351        0.0000000000000000     
 -0.86235209489210185      -0.41497088893354922        0.0000000000000000     
 -0.81594608696563464      -0.40629537736581761        0.0000000000000000     
 -0.76022091299360484      -0.40322492292394563        0.0000000000000000     
 -0.70049420968892995      -0.40128368736751163        0.0000000000000000     
 -0.64023625257110084      -0.40043592842146192        0.0000000000000000     
 -0.58006271154100941      -0.40010296710581694        0.0000000000000000     
 -0.52001212886901171      -0.40001795248790661        0.0000000000000000     
 -0.46000197095054418      -0.40000264192362373        0.0000000000000000     
 -0.40000032670878172      -0.40000040338544013        0.0000000000000000     
 -0.34000006650463149      -0.40000007817954170        0.0000000000000000     
 -0.28000001585882184      -0.40000001828468906        0.0000000000000000     
 -0.22000000356115984      -0.40000000407108144        0.0000000000000000     
 -0.16000000065209141      -0.40000000073400510        0.0000000000000000     
 -0.10000000011054638      -0.40000000012235642        0.0000000000000000     
  -4.0000000021983062E-002 -0.40000000002851666        0.0000000000000000     
   2.0000000006345008E-002 -0.40000000001842800        0.0000000000000000     
   8.0000000062456181E-002 -0.40000000006189013        0.0000000000000000     
  0.14000000029509180      -0.40000000027735144        0.0000000000000000     
  0.20000000138965529      -0.40000000128035157        0.0000000000000000     
  0.26000000779499810      -0.40000000700679644        0.0000000000000000     
  0.32000005060433923      -0.40000004382346976        0.0000000000000000     
  0.38000032096742237      -0.40000026337520711        0.0000000000000000     
  0.44000186609346831      -0.40000141400722128        0.0000000000000000     
  0.50000980014162810      -0.40000663961245814        0.0000000000000000     
  0.56004825673419878      -0.40002757459156790        0.0000000000000000     
  0.62021867716301216      -0.40009354601823749        0.0000000000000000     
  0.68088704897953534      -0.40020558194615946        0.0000000000000000     
  0.74301871078331694      -0.39996169421819427        0.0000000000000000     
  0.80519191648351207      -0.39725255075390087        0.0000000000000000     
  0.86304220611581073      -0.39498069404973846        0.0000000000000000     
 -0.87284602332080818      -0.36129595081287985        0.0000000000000000     
 -0.81867258864216652      -0.34691508009805733        0.0000000000000000     
 -0.76009530919277069      -0.34205859986232640        0.0000000000000000     
 -0.70021663502922726      -0.34058562636992717        0.0000000000000000     
 -0.64009258793573520      -0.34015354885151172        0.0000000000000000     
 -0.58002513102976994      -0.34003509137700938        0.0000000000000000     
 -0.52000460418530725      -0.34000599959731026        0.0000000000000000     
 -0.46000061176684837      -0.34000075584814998        0.0000000000000000     
 -0.40000006748171890      -0.34000007939127436        0.0000000000000000     
 -0.34000000790078894      -0.34000000892452109        0.0000000000000000     
 -0.28000000124629032      -0.34000000137497749        0.0000000000000000     
 -0.22000000024400904      -0.34000000026675892        0.0000000000000000     
 -0.16000000004514564      -0.34000000004912956        0.0000000000000000     
 -0.10000000000665252      -0.34000000000718872        0.0000000000000000     
  -4.0000000000837643E-002 -0.34000000000104624        0.0000000000000000     
   2.0000000000303872E-002 -0.34000000000064712        0.0000000000000000     
   8.0000000002570473E-002 -0.34000000000255814        0.0000000000000000     
  0.14000000001446444      -0.34000000001381186        0.0000000000000000     
  0.20000000009871446      -0.34000000009269260        0.0000000000000000     
  0.26000000081356012      -0.34000000074601827        0.0000000000000000     
  0.32000000665771983      -0.34000000591280305        0.0000000000000000     
  0.38000005092476363      -0.34000004323069977        0.0000000000000000     
  0.44000036566839923      -0.34000029275309995        0.0000000000000000     
  0.50000260751635317      -0.34000191402818530        0.0000000000000000     
  0.56001772776402170      -0.34001125708230018        0.0000000000000000     
  0.62010371722616886      -0.34005027288925244        0.0000000000000000     
  0.68046839253334834      -0.34012945448570275        0.0000000000000000     
  0.74148835615531039      -0.33998973158141754        0.0000000000000000     
  0.80407488426239326      -0.33877129752961077        0.0000000000000000     
  0.87592946495374069      -0.33449612808955431        0.0000000000000000     
  0.91512681887446901      -0.30588638970082360        0.0000000000000000     
 -0.92876716178285157      -0.26394683261781582        0.0000000000000000     
 -0.88960946119706663      -0.29259021713924260        0.0000000000000000     
 -0.82140846160349312      -0.28494304708969720        0.0000000000000000     
 -0.76043289143991566      -0.28143157210968472        0.0000000000000000     
 -0.70014022079947735      -0.28031776442372608        0.0000000000000000     
 -0.64003703650708443      -0.28005977136314653        0.0000000000000000     
 -0.58000788622479771      -0.28001037851467575        0.0000000000000000     
 -0.52000136123787155      -0.28000164063626509        0.0000000000000000     
 -0.46000017490783529      -0.28000020303918349        0.0000000000000000     
 -0.40000001637967397      -0.28000001847033473        0.0000000000000000     
 -0.34000000126104096      -0.28000000138514153        0.0000000000000000     
 -0.28000000010687265      -0.28000000011489334        0.0000000000000000     
 -0.22000000001341202      -0.28000000001424635        0.0000000000000000     
 -0.16000000000220091      -0.28000000000232683        0.0000000000000000     
 -0.10000000000034026      -0.28000000000035941        0.0000000000000000     
  -4.0000000000038394E-002 -0.28000000000004455        0.0000000000000000     
   2.0000000000009219E-002 -0.28000000000001801        0.0000000000000000     
   8.0000000000088486E-002 -0.28000000000008773        0.0000000000000000     
  0.14000000000074420      -0.28000000000071740        0.0000000000000000     
  0.20000000000783791      -0.28000000000743391        0.0000000000000000     
  0.26000000008222152      -0.28000000007646553        0.0000000000000000     
  0.32000000081725710      -0.28000000073963005        0.0000000000000000     
  0.38000000785302629      -0.28000000687437337        0.0000000000000000     
  0.44000007941085706      -0.28000006612734674        0.0000000000000000     
  0.50000079141799014      -0.28000060625940321        0.0000000000000000     
  0.56000672839581989      -0.28000446663387424        0.0000000000000000     
  0.62004385409490159      -0.28002285987551845        0.0000000000000000     
  0.68021299946567948      -0.28006854688888499        0.0000000000000000     
  0.74081078257046018      -0.28002623526308995        0.0000000000000000     
  0.80238321450037187      -0.27909906081564967        0.0000000000000000     
  0.86211529965048428      -0.27464496315315362        0.0000000000000000     
  0.91556676029414008      -0.26728926937750713        0.0000000000000000     
 -0.92906545870097879      -0.22118237603101168        0.0000000000000000     
 -0.87878350312738251      -0.22179438734008541        0.0000000000000000     
 -0.82098691342233010      -0.22205674936148692        0.0000000000000000     
 -0.76038763815958466      -0.22074119351017468        0.0000000000000000     
 -0.70010047749159754      -0.22016933860702595        0.0000000000000000     
 -0.64001860844648317      -0.22002720810080367        0.0000000000000000     
 -0.58000270093482986      -0.22000345844305597        0.0000000000000000     
 -0.52000034565410436      -0.22000040245308139        0.0000000000000000     
 -0.46000004031927133      -0.22000004487580660        0.0000000000000000     
 -0.40000000372789019      -0.22000000406602485        0.0000000000000000     
 -0.34000000024960936      -0.22000000026770866        0.0000000000000000     
 -0.28000000001352865      -0.22000000001429429        0.0000000000000000     
 -0.22000000000083547      -0.22000000000087236        0.0000000000000000     
 -0.16000000000008452      -0.22000000000008768        0.0000000000000000     
 -0.10000000000001182      -0.22000000000001221        0.0000000000000000     
  -4.0000000000001541E-002 -0.22000000000000169        0.0000000000000000     
   2.0000000000000115E-002 -0.22000000000000056        0.0000000000000000     
   8.0000000000003221E-002 -0.22000000000000336        0.0000000000000000     
  0.14000000000004556      -0.22000000000004424        0.0000000000000000     
  0.20000000000061255      -0.22000000000058606        0.0000000000000000     
  0.26000000000786266      -0.22000000000739331        0.0000000000000000     
  0.32000000009929808      -0.22000000009154955        0.0000000000000000     
  0.38000000140171741      -0.22000000125352151        0.0000000000000000     
  0.44000002017818368      -0.22000001714714409        0.0000000000000000     
  0.50000024783535668      -0.22000019395170023        0.0000000000000000     
  0.56000235330689807      -0.22000162581295049        0.0000000000000000     
  0.62001717918578181      -0.22000962996468898        0.0000000000000000     
  0.68009654507861528      -0.22003472193563314        0.0000000000000000     
  0.74038928038618590      -0.22001812363161974        0.0000000000000000     
  0.80095727385789206      -0.21946698089248937        0.0000000000000000     
  0.86152840656793739      -0.21718790640112129        0.0000000000000000     
  0.92057189860254496      -0.21363584452882156        0.0000000000000000     
 -0.93257944017613725      -0.16324709580464658        0.0000000000000000     
 -0.87775781457207869      -0.16122799332303880        0.0000000000000000     
 -0.81982279240738654      -0.16060153617018491        0.0000000000000000     
 -0.76012135719104035      -0.16026267638364955        0.0000000000000000     
 -0.70004644201632427      -0.16006918476858611        0.0000000000000000     
 -0.64000891164992402      -0.16001169049542308        0.0000000000000000     
 -0.58000110237603009      -0.16000133819932699        0.0000000000000000     
 -0.52000010151028209      -0.16000011578589179        0.0000000000000000     
 -0.46000000837106170      -0.16000000911482798        0.0000000000000000     
 -0.40000000068550162      -0.16000000072964216        0.0000000000000000     
 -0.34000000004652342      -0.16000000004897769        0.0000000000000000     
 -0.28000000000223496      -0.16000000000232853        0.0000000000000000     
 -0.22000000000008502      -0.16000000000008779        0.0000000000000000     
 -0.16000000000000392      -0.16000000000000400        0.0000000000000000     
 -0.10000000000000039      -0.16000000000000042        0.0000000000000000     
  -4.0000000000000084E-002 -0.16000000000000017        0.0000000000000000     
   1.9999999999999948E-002 -0.16000000000000014        0.0000000000000000     
   8.0000000000000057E-002 -0.16000000000000025        0.0000000000000000     
  0.14000000000000262      -0.16000000000000278        0.0000000000000000     
  0.20000000000004561      -0.16000000000004411        0.0000000000000000     
  0.26000000000074758      -0.16000000000071157        0.0000000000000000     
  0.32000000001458850      -0.16000000001361667        0.0000000000000000     
  0.38000000030105235      -0.16000000027190392        0.0000000000000000     
  0.44000000530837424      -0.16000000455404734        0.0000000000000000     
  0.50000007314761075      -0.16000005837099879        0.0000000000000000     
  0.56000079984049989      -0.16000057192373923        0.0000000000000000     
  0.62000687107415653      -0.16000406568634137        0.0000000000000000     
  0.68004379408323601      -0.16001790678094047        0.0000000000000000     
  0.74020100406752098      -0.16002291475826746        0.0000000000000000     
  0.80070686583758255      -0.15973518238520365        0.0000000000000000     
  0.86219630508750866      -0.15788025796794880        0.0000000000000000     
  0.93051822188878630      -0.15052664684624353        0.0000000000000000     
  0.96422398166395229      -0.12040292715097359        0.0000000000000000     
 -0.93631248088475572      -0.10260891575228431        0.0000000000000000     
 -0.87855758440117127      -0.10089610446951498        0.0000000000000000     
 -0.81968513149350819      -0.10025545410197095        0.0000000000000000     
 -0.75998283695067925      -0.10007388840384455        0.0000000000000000     
 -0.70000989302167493      -0.10002005513290278        0.0000000000000000     
 -0.64000291187316483      -0.10000382358988529        0.0000000000000000     
 -0.58000040554873489      -0.10000047294352839        0.0000000000000000     
 -0.52000003476576484      -0.10000003849528387        0.0000000000000000     
 -0.46000000212748504      -0.10000000227530831        0.0000000000000000     
 -0.40000000011667775      -0.10000000012179244        0.0000000000000000     
 -0.34000000000689073      -0.10000000000712664        0.0000000000000000     
 -0.28000000000034742      -0.10000000000035772        0.0000000000000000     
 -0.22000000000001196      -0.10000000000001222        0.0000000000000000     
 -0.16000000000000042      -0.10000000000000039        0.0000000000000000     
 -0.10000000000000009      -0.10000000000000009        0.0000000000000000     
  -4.0000000000000036E-002 -0.10000000000000009        0.0000000000000000     
   1.9999999999999948E-002 -0.10000000000000009        0.0000000000000000     