 VARIABLES = "X", "Y", "Z"
 ZONE F=FEPOINT, ET=QUADRILATERAL, N=          28 E=          21
 -0.48340687625935008      -0.48306055112157020        0.0000000000000000     
 -0.19341608693973666      -0.52788693201689441        0.0000000000000000     
  0.19596559199865110      -0.51731110315956130        0.0000000000000000     
  0.49091735106486156      -0.43665858461109464        0.0000000000000000     
 -0.53052641686340696      -0.19329585236734931        0.0000000000000000     
 -0.17650611969358254      -0.17324844083217689        0.0000000000000000     
  0.18006714787182077      -0.15860413727696324        0.0000000000000000     
  0.54113807012959847      -0.12767752611214428        0.0000000000000000     
 -0.53054045002182737       0.19431585921842140        0.0000000000000000     
 -0.17663416270011106       0.18019085212824634        0.0000000000000000     
  0.17923791279404128       0.19042601008012106        0.0000000000000000     
  0.53672905887826738       0.23229826572343390        0.0000000000000000     
 -0.48343141862166517       0.48373034521942193        0.0000000000000000     
 -0.19362249158228792       0.53204450486315114        0.0000000000000000     
  0.19465203258882222       0.53565845080841135        0.0000000000000000     
  0.48468948377110693       0.49112536346429331        0.0000000000000000     
 -0.95066567229629129      -0.31021731015119147        0.0000000000000000     
 -0.70710659966654754      -0.70710696270650097        0.0000000000000000     
 -0.31021731015119053      -0.95066567229629162        0.0000000000000000     
  0.31021731015119103      -0.95066567229629140        0.0000000000000000     
  0.70710696270650031      -0.70710659966654821        0.0000000000000000     
   1.0000000000000000       -2.4492935982947064E-016   0.0000000000000000     
  0.95066567229629162       0.31021731015119047        0.0000000000000000     
  0.70710675603818618       0.70710680633490808        0.0000000000000000     
  0.31021731015118997       0.95066567229629173        0.0000000000000000     
 -0.31021731015118986       0.95066567229629184        0.0000000000000000     
 -0.70710678978387942       0.70710677258921550        0.0000000000000000     
 -0.95066567229629162       0.31021731015119047        0.0000000000000000     
           1           2           6           5
           2           3           7           6
           3           4           8           7
           5           6          10           9
           6           7          11          10
           7           8          12          11
           9          10          14          13
          10          11          15          14
          11          12          16          15
           5          17          18           1
           1          18          19           2
           2          19          20           3
           3          20          21           4
           4          21          22           8
           8          22          23          12
          12          23          24          16
          16          24          25          15
          15          25          26          14
          14          26          27          13
          13          27          28           9
           9          28          17           5
