 VARIABLES = "X", "Y", "Z"
 ZONE F=FEPOINT, ET=QUADRILATERAL, N=          53 E=          42
 -0.58494890297918600      -0.58494843158667897        0.0000000000000000     
 -0.39499042654797156      -0.62756486024820846        0.0000000000000000     
 -0.10622552854720310      -0.66547928262551670        0.0000000000000000     
  0.20360962403283539      -0.66515670793814763        0.0000000000000000     
  0.42789798899337428      -0.64685820505118741        0.0000000000000000     
 -0.62757315164361427      -0.39498989145842628        0.0000000000000000     
 -0.37667832460356704      -0.37666278291910799        0.0000000000000000     
  -9.6449803590585345E-002 -0.38351220850135137        0.0000000000000000     
  0.19918986336431319      -0.38914198713670661        0.0000000000000000     
  0.52598893646412670      -0.41323976675421176        0.0000000000000000     
  0.73788971490995003      -0.28556302599454952        0.0000000000000000     
 -0.66555361577345962      -0.10622865925704918        0.0000000000000000     
 -0.38367342223915546       -9.6438824544782961E-002   0.0000000000000000     
  -9.5899491773678000E-002  -9.5700432921421510E-002   0.0000000000000000     
  0.20021200884552109       -9.7923588270306353E-002   0.0000000000000000     
  0.48373211986725390       -8.8370393074152703E-002   0.0000000000000000     
  0.73647273719892814       -6.3628593339260589E-002   0.0000000000000000     
 -0.66553069180878410       0.20358842921174586        0.0000000000000000     
 -0.39017938139818914       0.19914577640401698        0.0000000000000000     
  -9.9365650731829111E-002  0.20030349878540943        0.0000000000000000     
  0.19747770667729039       0.19857169368861588        0.0000000000000000     
  0.47778998716388937       0.19765725244213259        0.0000000000000000     
  0.72572283098686141       0.20656949853692666        0.0000000000000000     
 -0.64747633172690566       0.42786172389792615        0.0000000000000000     
 -0.41766701176705456       0.52573488071538432        0.0000000000000000     
  -9.5404130574204826E-002  0.48340975834891248        0.0000000000000000     
  0.19261152089323047       0.47803355767643224        0.0000000000000000     
  0.50102096494115667       0.50262057111722114        0.0000000000000000     
  0.71108390559286327       0.40212883211301353        0.0000000000000000     
 -0.30345459824634374       0.73682594699830284        0.0000000000000000     
  -8.8972503514276755E-002  0.73499283700014029        0.0000000000000000     
  0.19184460369538697       0.72498384065451749        0.0000000000000000     
  0.39922658031055108       0.71112666777190991        0.0000000000000000     
 -0.86932300407619212      -0.49424438750879601        0.0000000000000000     
 -0.70710659966654843      -0.70710696270649998        0.0000000000000000     
 -0.49424438750879551      -0.86932300407619234        0.0000000000000000     
 -0.14142119753039886      -0.98994951633356931        0.0000000000000000     
  0.27043238641554046      -0.96273897001087261        0.0000000000000000     
  0.56627242163199432      -0.82421814133094451        0.0000000000000000     
  0.77318252894392714      -0.63418355145483973        0.0000000000000000     
  0.90891318918856046      -0.41698538885562897        0.0000000000000000     
   1.0000000000000000       -2.4492935982947064E-016   0.0000000000000000     
  0.97114417299969780       0.23849317652447219        0.0000000000000000     
  0.85973009384800969       0.51074863262870551        0.0000000000000000     
  0.70710675603818618       0.70710680633490808        0.0000000000000000     
  0.51074863262870562       0.85973009384800969        0.0000000000000000     
  0.23849317652447236       0.97114417299969780        0.0000000000000000     
 -0.11899137355272119       0.99289528804402971        0.0000000000000000     
 -0.41698538885562830       0.90891318918856079        0.0000000000000000     
 -0.63418355145483984       0.77318252894392703        0.0000000000000000     
 -0.82421828136031738       0.56627221781705361        0.0000000000000000     
 -0.96273897001087261       0.27043238641554035        0.0000000000000000     
 -0.98994951633356931      -0.14142119753039900        0.0000000000000000     
           1           2           7           6
           2           3           8           7
           3           4           9           8
           4           5          10           9
           6           7          13          12
           7           8          14          13
           8           9          15          14
           9          10          16          15
          10          11          17          16
          12          13          19          18
          13          14          20          19
          14          15          21          20
          15          16          22          21
          16          17          23          22
          18          19          25          24
          19          20          26          25
          20          21          27          26
          21          22          28          27
          22          23          29          28
          25          26          31          30
          26          27          32          31
          27          28          33          32
           6          34          35           1
           1          35          36           2
           2          36          37           3
           3          37          38           4
           4          38          39           5
           5          39          40          10
          10          40          41          11
          11          41          42          17
          17          42          43          23
          23          43          44          29
          29          44          45          28
          28          45          46          33
          33          46          47          32
          32          47          48          31
          31          48          49          30
          30          49          50          25
          25          50          51          24
          24          51          52          18
          18          52          53          12
          12          53          34           6
